 Entering Gaussian System, Link 0=g09
 Initial command:
 /share/programs/GAUSSIAN/64/g09/l1.exe "/scratch/humbel.106223/Gau-86355.inp" -scrdir="/scratch/humbel.106223/"
 Entering Link 1 = /share/programs/GAUSSIAN/64/g09/l1.exe PID=     86356.
  
 Copyright (c) 1988,1990,1992,1993,1995,1998,2003,2009,2013,
            Gaussian, Inc.  All Rights Reserved.
  
 This is part of the Gaussian(R) 09 program.  It is based on
 the Gaussian(R) 03 system (copyright 2003, Gaussian, Inc.),
 the Gaussian(R) 98 system (copyright 1998, Gaussian, Inc.),
 the Gaussian(R) 94 system (copyright 1995, Gaussian, Inc.),
 the Gaussian 92(TM) system (copyright 1992, Gaussian, Inc.),
 the Gaussian 90(TM) system (copyright 1990, Gaussian, Inc.),
 the Gaussian 88(TM) system (copyright 1988, Gaussian, Inc.),
 the Gaussian 86(TM) system (copyright 1986, Carnegie Mellon
 University), and the Gaussian 82(TM) system (copyright 1983,
 Carnegie Mellon University). Gaussian is a federally registered
 trademark of Gaussian, Inc.
  
 This software contains proprietary and confidential information,
 including trade secrets, belonging to Gaussian, Inc.
  
 This software is provided under written license and may be
 used, copied, transmitted, or stored only in accord with that
 written license.
  
 The following legend is applicable only to US Government
 contracts under FAR:
  
                    RESTRICTED RIGHTS LEGEND
  
 Use, reproduction and disclosure by the US Government is
 subject to restrictions as set forth in subparagraphs (a)
 and (c) of the Commercial Computer Software - Restricted
 Rights clause in FAR 52.227-19.
  
 Gaussian, Inc.
 340 Quinnipiac St., Bldg. 40, Wallingford CT 06492
  
  
 ---------------------------------------------------------------
 Warning -- This program may not be used in any manner that
 competes with the business of Gaussian, Inc. or will provide
 assistance to any competitor of Gaussian, Inc.  The licensee
 of this program is prohibited from giving any competitor of
 Gaussian, Inc. access to this program.  By using this program,
 the user acknowledges that Gaussian, Inc. is engaged in the
 business of creating and licensing software in the field of
 computational chemistry and represents and warrants to the
 licensee that it is not a competitor of Gaussian, Inc. and that
 it will not use this program in any manner prohibited above.
 ---------------------------------------------------------------
  

 Cite this work as:
 Gaussian 09, Revision D.01,
 M. J. Frisch, G. W. Trucks, H. B. Schlegel, G. E. Scuseria, 
 M. A. Robb, J. R. Cheeseman, G. Scalmani, V. Barone, B. Mennucci, 
 G. A. Petersson, H. Nakatsuji, M. Caricato, X. Li, H. P. Hratchian, 
 A. F. Izmaylov, J. Bloino, G. Zheng, J. L. Sonnenberg, M. Hada, 
 M. Ehara, K. Toyota, R. Fukuda, J. Hasegawa, M. Ishida, T. Nakajima, 
 Y. Honda, O. Kitao, H. Nakai, T. Vreven, J. A. Montgomery, Jr., 
 J. E. Peralta, F. Ogliaro, M. Bearpark, J. J. Heyd, E. Brothers, 
 K. N. Kudin, V. N. Staroverov, T. Keith, R. Kobayashi, J. Normand, 
 K. Raghavachari, A. Rendell, J. C. Burant, S. S. Iyengar, J. Tomasi, 
 M. Cossi, N. Rega, J. M. Millam, M. Klene, J. E. Knox, J. B. Cross, 
 V. Bakken, C. Adamo, J. Jaramillo, R. Gomperts, R. E. Stratmann, 
 O. Yazyev, A. J. Austin, R. Cammi, C. Pomelli, J. W. Ochterski, 
 R. L. Martin, K. Morokuma, V. G. Zakrzewski, G. A. Voth, 
 P. Salvador, J. J. Dannenberg, S. Dapprich, A. D. Daniels, 
 O. Farkas, J. B. Foresman, J. V. Ortiz, J. Cioslowski, 
 and D. J. Fox, Gaussian, Inc., Wallingford CT, 2013.
 
 ******************************************
 Gaussian 09:  ES64L-G09RevD.01 24-Apr-2013
                21-Jul-2022 
 ******************************************
 %mem=2GB
 %nproc=12
 Will use up to   12 processors via shared memory.
 ---------------------------------------------------------------------
 #P PBE1PBE def2SVP scf=tight empiricaldispersion=gd3 opt=modredundant
 ---------------------------------------------------------------------
 1/14=-1,18=120,19=15,26=3,38=1/1,3;
 2/9=110,12=2,17=6,18=5,40=1/2;
 3/5=43,7=101,11=2,16=1,25=1,30=1,71=1,74=-13,124=31/1,2,3;
 4//1;
 5/5=2,32=2,38=5/2;
 6/7=2,8=2,9=2,10=2,28=1/1;
 7//1,2,3,16;
 1/14=-1,18=20,19=15,26=3/3(2);
 2/9=110/2;
 99//99;
 2/9=110/2;
 3/5=43,7=101,11=2,16=1,25=1,30=1,71=1,74=-13,124=31/1,2,3;
 4/5=5,16=3,69=1/1;
 5/5=2,32=2,38=5/2;
 7//1,2,3,16;
 1/14=-1,18=20,19=15,26=3/3(-5);
 2/9=110/2;
 6/7=2,8=2,9=2,10=2,19=2,28=1/1;
 99/9=1/99;
 Leave Link    1 at Thu Jul 21 13:31:29 2022, MaxMem=   268435456 cpu:         0.9
 (Enter /share/programs/GAUSSIAN/64/g09/l101.exe)
 ----------
 output=wfn
 ----------
 Symbolic Z-matrix:
 Charge =  0 Multiplicity = 1
 O                     3.01385  -2.97572  -0.32185 
 C                    -2.55946  -0.559    -0.30686 
 C                    -3.24057  -1.67239  -0.81235 
 H                    -4.32779  -1.66993  -0.8926 
 C                    -2.46808  -2.75861  -1.15201 
 H                    -2.94512  -3.67225  -1.51588 
 C                    -1.0555   -2.74851  -1.01964 
 C                    -0.31645  -3.93321  -1.27876 
 H                    -0.85212  -4.81777  -1.63269 
 C                     1.0282   -3.9976   -1.03205 
 H                     1.60404  -4.91528  -1.16166 
 C                     1.706    -2.84037  -0.58822 
 C                     3.52934  -1.98521   0.5643 
 H                     3.0721   -2.14305   1.56366 
 H                     4.60735  -2.17528   0.63981 
 C                     3.22079  -0.63197   0.02459 
 H                     4.0037    0.12297  -0.07237 
 C                     1.97972  -0.43396  -0.47116 
 C                     1.06846  -1.59613  -0.49174 
 C                    -0.36619  -1.56463  -0.57883 
 C                    -1.18645  -0.47114  -0.19311 
 C                     1.63651   0.8264   -1.16761 
 C                     0.84573   0.82324  -2.32658 
 H                     0.49972  -0.12682  -2.73846 
 C                     0.47378   2.01934  -2.93495 
 H                    -0.1672    1.99934  -3.81908 
 C                     0.89639   3.23887  -2.40697 
 H                     0.57591   4.17645  -2.86576 
 C                     1.71554   3.25338  -1.27786 
 H                     2.04561   4.20485  -0.85419 
 C                     2.08269   2.05916  -0.66392 
 Br                    3.21225   2.09163   1.08705 
 O                    -3.36862   0.60683   0.13721 
 H                    -0.73422   0.43269   0.1907 
 H                    -3.28961   1.48631  -0.23946 
 
 The following ModRedundant input section has been read:
 D      19      18      22      31 S  10 -15.00                                
 
 NAtoms=     35 NQM=       35 NQMF=       0 NMMI=      0 NMMIF=      0
                NMic=       0 NMicF=      0.
                    Isotopes and Nuclear Properties:
 (Nuclear quadrupole moments (NQMom) in fm**2, nuclear magnetic moments (NMagM)
  in nuclear magnetons)

  Atom         1           2           3           4           5           6           7           8           9          10
 IAtWgt=          16          12          12           1          12           1          12          12           1          12
 AtmWgt=  15.9949146  12.0000000  12.0000000   1.0078250  12.0000000   1.0078250  12.0000000  12.0000000   1.0078250  12.0000000
 NucSpn=           0           0           0           1           0           1           0           0           1           0
 AtZEff=   0.0000000   0.0000000   0.0000000   0.0000000   0.0000000   0.0000000   0.0000000   0.0000000   0.0000000   0.0000000
 NQMom=    0.0000000   0.0000000   0.0000000   0.0000000   0.0000000   0.0000000   0.0000000   0.0000000   0.0000000   0.0000000
 NMagM=    0.0000000   0.0000000   0.0000000   2.7928460   0.0000000   2.7928460   0.0000000   0.0000000   2.7928460   0.0000000
 AtZNuc=   8.0000000   6.0000000   6.0000000   1.0000000   6.0000000   1.0000000   6.0000000   6.0000000   1.0000000   6.0000000

  Atom        11          12          13          14          15          16          17          18          19          20
 IAtWgt=           1          12          12           1           1          12           1          12          12          12
 AtmWgt=   1.0078250  12.0000000  12.0000000   1.0078250   1.0078250  12.0000000   1.0078250  12.0000000  12.0000000  12.0000000
 NucSpn=           1           0           0           1           1           0           1           0           0           0
 AtZEff=   0.0000000   0.0000000   0.0000000   0.0000000   0.0000000   0.0000000   0.0000000   0.0000000   0.0000000   0.0000000
 NQMom=    0.0000000   0.0000000   0.0000000   0.0000000   0.0000000   0.0000000   0.0000000   0.0000000   0.0000000   0.0000000
 NMagM=    2.7928460   0.0000000   0.0000000   2.7928460   2.7928460   0.0000000   2.7928460   0.0000000   0.0000000   0.0000000
 AtZNuc=   1.0000000   6.0000000   6.0000000   1.0000000   1.0000000   6.0000000   1.0000000   6.0000000   6.0000000   6.0000000

  Atom        21          22          23          24          25          26          27          28          29          30
 IAtWgt=          12          12          12           1          12           1          12           1          12           1
 AtmWgt=  12.0000000  12.0000000  12.0000000   1.0078250  12.0000000   1.0078250  12.0000000   1.0078250  12.0000000   1.0078250
 NucSpn=           0           0           0           1           0           1           0           1           0           1
 AtZEff=   0.0000000   0.0000000   0.0000000   0.0000000   0.0000000   0.0000000   0.0000000   0.0000000   0.0000000   0.0000000
 NQMom=    0.0000000   0.0000000   0.0000000   0.0000000   0.0000000   0.0000000   0.0000000   0.0000000   0.0000000   0.0000000
 NMagM=    0.0000000   0.0000000   0.0000000   2.7928460   0.0000000   2.7928460   0.0000000   2.7928460   0.0000000   2.7928460
 AtZNuc=   6.0000000   6.0000000   6.0000000   1.0000000   6.0000000   1.0000000   6.0000000   1.0000000   6.0000000   1.0000000

  Atom        31          32          33          34          35
 IAtWgt=          12          79          16           1           1
 AtmWgt=  12.0000000  78.9183361  15.9949146   1.0078250   1.0078250
 NucSpn=           0           3           0           1           1
 AtZEff=   0.0000000   0.0000000   0.0000000   0.0000000   0.0000000
 NQMom=    0.0000000  31.3000000   0.0000000   0.0000000   0.0000000
 NMagM=    0.0000000   2.1063990   0.0000000   2.7928460   2.7928460
 AtZNuc=   6.0000000  35.0000000   8.0000000   1.0000000   1.0000000
 Leave Link  101 at Thu Jul 21 13:31:29 2022, MaxMem=   268435456 cpu:         1.9
 (Enter /share/programs/GAUSSIAN/64/g09/l103.exe)

 GradGradGradGradGradGradGradGradGradGradGradGradGradGradGradGradGradGrad
 Berny optimization.
 Initialization pass.
                           ----------------------------
                           !    Initial Parameters    !
                           ! (Angstroms and Degrees)  !
 --------------------------                            --------------------------
 ! Name  Definition              Value          Derivative Info.                !
 --------------------------------------------------------------------------------
 ! R1    R(1,12)                 1.3415         estimate D2E/DX2                !
 ! R2    R(1,13)                 1.4255         estimate D2E/DX2                !
 ! R3    R(2,3)                  1.3997         estimate D2E/DX2                !
 ! R4    R(2,21)                 1.3805         estimate D2E/DX2                !
 ! R5    R(2,33)                 1.487          estimate D2E/DX2                !
 ! R6    R(3,4)                  1.0902         estimate D2E/DX2                !
 ! R7    R(3,5)                  1.3755         estimate D2E/DX2                !
 ! R8    R(5,6)                  1.093          estimate D2E/DX2                !
 ! R9    R(5,7)                  1.4188         estimate D2E/DX2                !
 ! R10   R(7,8)                  1.4202         estimate D2E/DX2                !
 ! R11   R(7,20)                 1.4391         estimate D2E/DX2                !
 ! R12   R(8,9)                  1.093          estimate D2E/DX2                !
 ! R13   R(8,10)                 1.3686         estimate D2E/DX2                !
 ! R14   R(10,11)                1.0911         estimate D2E/DX2                !
 ! R15   R(10,12)                1.4126         estimate D2E/DX2                !
 ! R16   R(12,19)                1.4014         estimate D2E/DX2                !
 ! R17   R(13,14)                1.1103         estimate D2E/DX2                !
 ! R18   R(13,15)                1.0972         estimate D2E/DX2                !
 ! R19   R(13,16)                1.4892         estimate D2E/DX2                !
 ! R20   R(16,17)                1.0919         estimate D2E/DX2                !
 ! R21   R(16,18)                1.351          estimate D2E/DX2                !
 ! R22   R(18,19)                1.477          estimate D2E/DX2                !
 ! R23   R(18,22)                1.4803         estimate D2E/DX2                !
 ! R24   R(19,20)                1.4376         estimate D2E/DX2                !
 ! R25   R(20,21)                1.4203         estimate D2E/DX2                !
 ! R26   R(21,34)                1.0811         estimate D2E/DX2                !
 ! R27   R(22,23)                1.4031         estimate D2E/DX2                !
 ! R28   R(22,31)                1.4044         estimate D2E/DX2                !
 ! R29   R(23,24)                1.0918         estimate D2E/DX2                !
 ! R30   R(23,25)                1.3925         estimate D2E/DX2                !
 ! R31   R(25,26)                1.0922         estimate D2E/DX2                !
 ! R32   R(25,27)                1.3945         estimate D2E/DX2                !
 ! R33   R(27,28)                1.0919         estimate D2E/DX2                !
 ! R34   R(27,29)                1.395          estimate D2E/DX2                !
 ! R35   R(29,30)                1.0926         estimate D2E/DX2                !
 ! R36   R(29,31)                1.3921         estimate D2E/DX2                !
 ! R37   R(31,32)                2.084          estimate D2E/DX2                !
 ! R38   R(33,35)                0.96           estimate D2E/DX2                !
 ! A1    A(12,1,13)            113.9449         estimate D2E/DX2                !
 ! A2    A(3,2,21)             124.358          estimate D2E/DX2                !
 ! A3    A(3,2,33)             117.8215         estimate D2E/DX2                !
 ! A4    A(21,2,33)            117.8205         estimate D2E/DX2                !
 ! A5    A(2,3,4)              120.6699         estimate D2E/DX2                !
 ! A6    A(2,3,5)              116.3636         estimate D2E/DX2                !
 ! A7    A(4,3,5)              122.9351         estimate D2E/DX2                !
 ! A8    A(3,5,6)              119.8141         estimate D2E/DX2                !
 ! A9    A(3,5,7)              122.0383         estimate D2E/DX2                !
 ! A10   A(6,5,7)              118.1339         estimate D2E/DX2                !
 ! A11   A(5,7,8)              119.68           estimate D2E/DX2                !
 ! A12   A(5,7,20)             120.7516         estimate D2E/DX2                !
 ! A13   A(8,7,20)             119.5301         estimate D2E/DX2                !
 ! A14   A(7,8,9)              118.6302         estimate D2E/DX2                !
 ! A15   A(7,8,10)             121.1744         estimate D2E/DX2                !
 ! A16   A(9,8,10)             120.1196         estimate D2E/DX2                !
 ! A17   A(8,10,11)            122.4574         estimate D2E/DX2                !
 ! A18   A(8,10,12)            119.3078         estimate D2E/DX2                !
 ! A19   A(11,10,12)           118.2344         estimate D2E/DX2                !
 ! A20   A(1,12,10)            116.5827         estimate D2E/DX2                !
 ! A21   A(1,12,19)            121.293          estimate D2E/DX2                !
 ! A22   A(10,12,19)           122.0512         estimate D2E/DX2                !
 ! A23   A(1,13,14)            108.1696         estimate D2E/DX2                !
 ! A24   A(1,13,15)            106.1226         estimate D2E/DX2                !
 ! A25   A(1,13,16)            109.3409         estimate D2E/DX2                !
 ! A26   A(14,13,15)           108.5444         estimate D2E/DX2                !
 ! A27   A(14,13,16)           111.7197         estimate D2E/DX2                !
 ! A28   A(15,13,16)           112.7002         estimate D2E/DX2                !
 ! A29   A(13,16,17)           120.7897         estimate D2E/DX2                !
 ! A30   A(13,16,18)           117.1614         estimate D2E/DX2                !
 ! A31   A(17,16,18)           121.6507         estimate D2E/DX2                !
 ! A32   A(16,18,19)           117.1652         estimate D2E/DX2                !
 ! A33   A(16,18,22)           120.6909         estimate D2E/DX2                !
 ! A34   A(19,18,22)           121.355          estimate D2E/DX2                !
 ! A35   A(12,19,18)           114.7649         estimate D2E/DX2                !
 ! A36   A(12,19,20)           117.987          estimate D2E/DX2                !
 ! A37   A(18,19,20)           126.8197         estimate D2E/DX2                !
 ! A38   A(7,20,19)            118.5888         estimate D2E/DX2                !
 ! A39   A(7,20,21)            116.0981         estimate D2E/DX2                !
 ! A40   A(19,20,21)           125.2211         estimate D2E/DX2                !
 ! A41   A(2,21,20)            120.1988         estimate D2E/DX2                !
 ! A42   A(2,21,34)            119.9009         estimate D2E/DX2                !
 ! A43   A(20,21,34)           119.9003         estimate D2E/DX2                !
 ! A44   A(18,22,23)           121.1569         estimate D2E/DX2                !
 ! A45   A(18,22,31)           120.3276         estimate D2E/DX2                !
 ! A46   A(23,22,31)           118.5079         estimate D2E/DX2                !
 ! A47   A(22,23,24)           119.4859         estimate D2E/DX2                !
 ! A48   A(22,23,25)           120.6299         estimate D2E/DX2                !
 ! A49   A(24,23,25)           119.8665         estimate D2E/DX2                !
 ! A50   A(23,25,26)           119.6483         estimate D2E/DX2                !
 ! A51   A(23,25,27)           120.3191         estimate D2E/DX2                !
 ! A52   A(26,25,27)           120.0231         estimate D2E/DX2                !
 ! A53   A(25,27,28)           120.1918         estimate D2E/DX2                !
 ! A54   A(25,27,29)           119.5705         estimate D2E/DX2                !
 ! A55   A(28,27,29)           120.2315         estimate D2E/DX2                !
 ! A56   A(27,29,30)           120.02           estimate D2E/DX2                !
 ! A57   A(27,29,31)           120.1921         estimate D2E/DX2                !
 ! A58   A(30,29,31)           119.7606         estimate D2E/DX2                !
 ! A59   A(22,31,29)           120.7331         estimate D2E/DX2                !
 ! A60   A(22,31,32)           119.1572         estimate D2E/DX2                !
 ! A61   A(29,31,32)           120.0096         estimate D2E/DX2                !
 ! A62   A(2,33,35)            123.8005         estimate D2E/DX2                !
 ! D1    D(13,1,12,10)        -157.7385         estimate D2E/DX2                !
 ! D2    D(13,1,12,19)          25.309          estimate D2E/DX2                !
 ! D3    D(12,1,13,14)          67.3091         estimate D2E/DX2                !
 ! D4    D(12,1,13,15)        -176.376          estimate D2E/DX2                !
 ! D5    D(12,1,13,16)         -54.5598         estimate D2E/DX2                !
 ! D6    D(21,2,3,4)          -178.8514         estimate D2E/DX2                !
 ! D7    D(21,2,3,5)             3.1285         estimate D2E/DX2                !
 ! D8    D(33,2,3,4)             1.1487         estimate D2E/DX2                !
 ! D9    D(33,2,3,5)          -176.8714         estimate D2E/DX2                !
 ! D10   D(3,2,21,20)           -1.176          estimate D2E/DX2                !
 ! D11   D(3,2,21,34)          178.8233         estimate D2E/DX2                !
 ! D12   D(33,2,21,20)         178.8239         estimate D2E/DX2                !
 ! D13   D(33,2,21,34)          -1.1768         estimate D2E/DX2                !
 ! D14   D(3,2,33,35)         -119.9994         estimate D2E/DX2                !
 ! D15   D(21,2,33,35)          60.0006         estimate D2E/DX2                !
 ! D16   D(2,3,5,6)            177.6354         estimate D2E/DX2                !
 ! D17   D(2,3,5,7)             -0.9917         estimate D2E/DX2                !
 ! D18   D(4,3,5,6)             -0.3355         estimate D2E/DX2                !
 ! D19   D(4,3,5,7)           -178.9627         estimate D2E/DX2                !
 ! D20   D(3,5,7,8)            174.7655         estimate D2E/DX2                !
 ! D21   D(3,5,7,20)            -2.9703         estimate D2E/DX2                !
 ! D22   D(6,5,7,8)             -3.8838         estimate D2E/DX2                !
 ! D23   D(6,5,7,20)           178.3805         estimate D2E/DX2                !
 ! D24   D(5,7,8,9)              3.4829         estimate D2E/DX2                !
 ! D25   D(5,7,8,10)          -173.3544         estimate D2E/DX2                !
 ! D26   D(20,7,8,9)          -178.7534         estimate D2E/DX2                !
 ! D27   D(20,7,8,10)            4.4092         estimate D2E/DX2                !
 ! D28   D(5,7,20,19)         -178.5343         estimate D2E/DX2                !
 ! D29   D(5,7,20,21)            4.7705         estimate D2E/DX2                !
 ! D30   D(8,7,20,19)            3.7266         estimate D2E/DX2                !
 ! D31   D(8,7,20,21)         -172.9687         estimate D2E/DX2                !
 ! D32   D(7,8,10,11)          175.9231         estimate D2E/DX2                !
 ! D33   D(7,8,10,12)           -3.8548         estimate D2E/DX2                !
 ! D34   D(9,8,10,11)           -0.8676         estimate D2E/DX2                !
 ! D35   D(9,8,10,12)          179.3544         estimate D2E/DX2                !
 ! D36   D(8,10,12,1)          177.9177         estimate D2E/DX2                !
 ! D37   D(8,10,12,19)          -5.1548         estimate D2E/DX2                !
 ! D38   D(11,10,12,1)          -1.8696         estimate D2E/DX2                !
 ! D39   D(11,10,12,19)        175.0579         estimate D2E/DX2                !
 ! D40   D(1,12,19,18)          16.8963         estimate D2E/DX2                !
 ! D41   D(1,12,19,20)        -170.0989         estimate D2E/DX2                !
 ! D42   D(10,12,19,18)       -159.888          estimate D2E/DX2                !
 ! D43   D(10,12,19,20)         13.1168         estimate D2E/DX2                !
 ! D44   D(1,13,16,17)        -129.4422         estimate D2E/DX2                !
 ! D45   D(1,13,16,18)          43.4322         estimate D2E/DX2                !
 ! D46   D(14,13,16,17)        110.8514         estimate D2E/DX2                !
 ! D47   D(14,13,16,18)        -76.2742         estimate D2E/DX2                !
 ! D48   D(15,13,16,17)        -11.6775         estimate D2E/DX2                !
 ! D49   D(15,13,16,18)        161.1969         estimate D2E/DX2                !
 ! D50   D(13,16,18,19)         -2.9249         estimate D2E/DX2                !
 ! D51   D(13,16,18,22)       -172.8881         estimate D2E/DX2                !
 ! D52   D(17,16,18,19)        169.884          estimate D2E/DX2                !
 ! D53   D(17,16,18,22)         -0.0793         estimate D2E/DX2                !
 ! D54   D(16,18,19,12)        -27.8913         estimate D2E/DX2                !
 ! D55   D(16,18,19,20)        159.8292         estimate D2E/DX2                !
 ! D56   D(22,18,19,12)        142.0011         estimate D2E/DX2                !
 ! D57   D(22,18,19,20)        -30.2784         estimate D2E/DX2                !
 ! D58   D(16,18,22,23)        139.1272         estimate D2E/DX2                !
 ! D59   D(16,18,22,31)        -41.8941         estimate D2E/DX2                !
 ! D60   D(19,18,22,23)        -30.4114         estimate D2E/DX2                !
 ! D61   D(19,18,22,31)        148.5672         Scan                            !
 ! D62   D(12,19,20,7)         -12.1098         estimate D2E/DX2                !
 ! D63   D(12,19,20,21)        164.2569         estimate D2E/DX2                !
 ! D64   D(18,19,20,7)         159.9499         estimate D2E/DX2                !
 ! D65   D(18,19,20,21)        -23.6833         estimate D2E/DX2                !
 ! D66   D(7,20,21,2)           -2.7802         estimate D2E/DX2                !
 ! D67   D(7,20,21,34)         177.2205         estimate D2E/DX2                !
 ! D68   D(19,20,21,2)        -179.2278         estimate D2E/DX2                !
 ! D69   D(19,20,21,34)          0.7729         estimate D2E/DX2                !
 ! D70   D(18,22,23,24)         -1.6996         estimate D2E/DX2                !
 ! D71   D(18,22,23,25)        176.7673         estimate D2E/DX2                !
 ! D72   D(31,22,23,24)        179.3036         estimate D2E/DX2                !
 ! D73   D(31,22,23,25)         -2.2295         estimate D2E/DX2                !
 ! D74   D(18,22,31,29)       -177.1186         estimate D2E/DX2                !
 ! D75   D(18,22,31,32)         -0.756          estimate D2E/DX2                !
 ! D76   D(23,22,31,29)          1.8868         estimate D2E/DX2                !
 ! D77   D(23,22,31,32)        178.2494         estimate D2E/DX2                !
 ! D78   D(22,23,25,26)       -178.1509         estimate D2E/DX2                !
 ! D79   D(22,23,25,27)          0.7264         estimate D2E/DX2                !
 ! D80   D(24,23,25,26)          0.3101         estimate D2E/DX2                !
 ! D81   D(24,23,25,27)        179.1874         estimate D2E/DX2                !
 ! D82   D(23,25,27,28)       -177.9326         estimate D2E/DX2                !
 ! D83   D(23,25,27,29)          1.1624         estimate D2E/DX2                !
 ! D84   D(26,25,27,28)          0.9405         estimate D2E/DX2                !
 ! D85   D(26,25,27,29)       -179.9645         estimate D2E/DX2                !
 ! D86   D(25,27,29,30)       -179.5999         estimate D2E/DX2                !
 ! D87   D(25,27,29,31)         -1.5043         estimate D2E/DX2                !
 ! D88   D(28,27,29,30)         -0.5053         estimate D2E/DX2                !
 ! D89   D(28,27,29,31)        177.5903         estimate D2E/DX2                !
 ! D90   D(27,29,31,22)         -0.0359         estimate D2E/DX2                !
 ! D91   D(27,29,31,32)       -176.3676         estimate D2E/DX2                !
 ! D92   D(30,29,31,22)        178.0647         estimate D2E/DX2                !
 ! D93   D(30,29,31,32)          1.733          estimate D2E/DX2                !
 --------------------------------------------------------------------------------
 Trust Radius=3.00D-01 FncErr=1.00D-07 GrdErr=1.00D-06
 Number of optimizations in scan=  11
 Number of steps in this run=    203 maximum allowed number of steps=    210.
 GradGradGradGradGradGradGradGradGradGradGradGradGradGradGradGradGradGrad

 Leave Link  103 at Thu Jul 21 13:31:29 2022, MaxMem=   268435456 cpu:         0.2
 (Enter /share/programs/GAUSSIAN/64/g09/l202.exe)
                          Input orientation:                          
 ---------------------------------------------------------------------
 Center     Atomic      Atomic             Coordinates (Angstroms)
 Number     Number       Type             X           Y           Z
 ---------------------------------------------------------------------
      1          8           0        3.013850   -2.975720   -0.321850
      2          6           0       -2.559460   -0.559000   -0.306860
      3          6           0       -3.240570   -1.672390   -0.812350
      4          1           0       -4.327790   -1.669930   -0.892600
      5          6           0       -2.468080   -2.758610   -1.152010
      6          1           0       -2.945120   -3.672250   -1.515880
      7          6           0       -1.055500   -2.748510   -1.019640
      8          6           0       -0.316450   -3.933210   -1.278760
      9          1           0       -0.852120   -4.817770   -1.632690
     10          6           0        1.028200   -3.997600   -1.032050
     11          1           0        1.604040   -4.915280   -1.161660
     12          6           0        1.706000   -2.840370   -0.588220
     13          6           0        3.529340   -1.985210    0.564300
     14          1           0        3.072100   -2.143050    1.563660
     15          1           0        4.607350   -2.175280    0.639810
     16          6           0        3.220790   -0.631970    0.024590
     17          1           0        4.003700    0.122970   -0.072370
     18          6           0        1.979720   -0.433960   -0.471160
     19          6           0        1.068460   -1.596130   -0.491740
     20          6           0       -0.366190   -1.564630   -0.578830
     21          6           0       -1.186450   -0.471140   -0.193110
     22          6           0        1.636510    0.826400   -1.167610
     23          6           0        0.845730    0.823240   -2.326580
     24          1           0        0.499720   -0.126820   -2.738460
     25          6           0        0.473780    2.019340   -2.934950
     26          1           0       -0.167200    1.999340   -3.819080
     27          6           0        0.896390    3.238870   -2.406970
     28          1           0        0.575910    4.176450   -2.865760
     29          6           0        1.715540    3.253380   -1.277860
     30          1           0        2.045610    4.204850   -0.854190
     31          6           0        2.082690    2.059160   -0.663920
     32         35           0        3.212250    2.091630    1.087050
     33          8           0       -3.368620    0.606830    0.137210
     34          1           0       -0.734220    0.432690    0.190700
     35          1           0       -3.289610    1.486310   -0.239460
 ---------------------------------------------------------------------
                    Distance matrix (angstroms):
                    1          2          3          4          5
     1  O    0.000000
     2  C    6.074746   0.000000
     3  C    6.407576   1.399667   0.000000
     4  H    7.478671   2.168928   1.090180   0.000000
     5  C    5.548681   2.358159   1.375494   2.170493   0.000000
     6  H    6.117204   3.361962   2.140487   2.511880   1.093026
     7  C    4.134990   2.750255   2.444491   3.447804   1.418804
     8  C    3.594908   4.166651   3.725496   4.621948   2.454641
     9  H    4.478524   4.775977   4.033741   4.747306   2.661300
    10  C    2.343380   5.022069   4.865929   5.841586   3.711261
    11  H    2.540618   6.086262   5.840257   6.766927   4.607980
    12  C    1.341545   4.845406   5.087530   6.153795   4.212777
    13  C    1.425518   6.313991   6.915541   7.997278   6.285930
    14  H    2.062009   6.141867   6.761416   7.811237   6.200594
    15  H    2.026015   7.407544   7.996969   9.079669   7.322063
    16  C    2.378237   5.790205   6.597887   7.674611   6.186293
    17  H    3.262503   6.602661   7.500022   8.561600   7.166105
    18  C    2.748138   4.543873   5.376016   6.441267   5.064630
    19  C    2.390957   3.777780   4.321614   5.411622   3.780798
    20  C    3.671769   2.428105   2.885863   3.975401   2.484364
    21  C    4.892036   1.380513   2.458835   3.434298   2.791878
    22  C    4.131403   4.501821   5.491454   6.471489   5.449789
    23  C    4.811630   4.193468   5.021843   5.919249   5.019024
    24  H    4.503008   3.931671   4.482015   5.393815   4.272116
    25  C    6.183112   4.770245   5.650725   6.390382   5.887463
    26  H    6.863011   4.960212   5.653992   6.272028   5.919915
    27  C    6.888577   5.547718   6.616474   7.326779   6.990304
    28  H    7.972990   6.229205   7.279488   7.881611   7.765170
    29  C    6.434380   5.809708   7.003066   7.804437   7.325472
    30  H    7.265085   6.648346   7.904897   8.668030   8.303726
    31  C    5.131675   5.341518   6.502584   7.419748   6.645197
    32  Br   5.263307   6.502420   7.708077   8.655666   7.797715
    33  O    7.333575   1.486976   2.472429   2.676593   3.714734
    34  H    5.091954   2.136005   3.423341   4.302127   3.872149
    35  H    7.723348   2.172776   3.210606   3.386187   4.418937
                    6          7          8          9         10
     6  H    0.000000
     7  C    2.161068   0.000000
     8  C    2.652213   1.420159   0.000000
     9  H    2.388830   2.167725   1.093003   0.000000
    10  C    4.015871   2.429441   1.368611   2.137534   0.000000
    11  H    4.729213   3.433397   2.160198   2.502818   1.091113
    12  C    4.815132   2.796506   2.400302   3.397794   1.412650
    13  C    7.006560   4.910423   4.688462   5.661038   3.585212
    14  H    6.930293   4.906842   4.771404   5.724533   3.788746
    15  H    7.995481   5.928764   5.569114   6.477100   4.350435
    16  C    7.045197   4.884344   5.010886   6.070922   4.153481
    17  H    8.048200   5.893914   6.047451   7.101021   5.172396
    18  C    5.985985   3.856233   4.262554   5.346612   3.730887
    19  C    4.633353   2.473432   2.828307   3.920377   2.461831
    20  C    3.459914   1.439109   2.470333   3.453935   2.840612
    21  C    3.884552   2.426255   3.731148   4.591009   4.247872
    22  C    6.430434   4.477588   5.145901   6.185971   4.864092
    23  C    5.936094   4.252078   5.007235   5.931709   4.994958
    24  H    5.092318   3.499473   4.157579   5.005518   4.263105
    25  C    6.789465   5.360924   6.228987   7.085193   6.334980
    26  H    6.722239   5.582833   6.455281   7.191829   6.720105
    27  C    7.957061   6.448510   7.360881   8.280474   7.367108
    28  H    8.707578   7.350152   8.311526   9.189980   8.389407
    29  C    8.351213   6.615741   7.468337   8.477160   7.287631
    30  H    9.348472   7.615345   8.484551   9.508447   8.267221
    31  C    7.671621   5.752257   6.484011   7.539482   6.158881
    32  Br   8.826707   6.788136   7.372074   8.464981   6.807304
    33  O    4.606798   4.236406   5.650900   6.236313   6.473019
    34  H    4.964980   3.418798   4.625465   5.559315   4.922267
    35  H    5.325285   4.851147   6.268255   6.901005   7.024596
                   11         12         13         14         15
    11  H    0.000000
    12  C    2.155106   0.000000
    13  C    3.907816   2.320381   0.000000
    14  H    4.155458   2.642550   1.110271   0.000000
    15  H    4.446658   3.219974   1.097239   1.792074   0.000000
    16  C    4.729462   2.747209   1.489211   2.161992   2.163989
    17  H    5.685849   3.785091   2.252729   2.946068   2.480634
    18  C    4.549742   2.424755   2.424846   2.873112   3.342288
    19  C    3.428177   1.401392   2.706018   2.922048   3.760261
    20  C    3.930439   2.433428   4.081518   4.092270   5.156945
    21  C    5.336226   3.759738   5.010464   4.900691   6.096390
    22  C    5.741775   3.712913   3.806241   4.282334   4.593772
    23  C    5.904463   4.145359   4.842142   5.374902   5.651582
    24  H    5.160927   3.666333   4.851849   5.402829   5.699256
    25  C    7.246447   5.535548   6.133320   6.656895   6.889133
    26  H    7.616505   6.113111   6.982483   7.525048   7.752772
    27  C    8.278993   6.396912   6.561393   7.033113   7.236512
    28  H    9.307017   7.463247   7.645529   8.110907   8.299759
    29  C    8.170247   6.132657   5.841768   6.247875   6.442854
    30  H    9.135989   7.058413   6.521534   6.869899   7.035667
    31  C    7.008542   4.914572   4.467466   4.857943   5.099422
    32  Br   7.532584   5.422171   4.122431   4.263721   4.511413
    33  O    7.543746   6.177476   7.381255   7.146991   8.462201
    34  H    5.991421   4.156238   4.915665   4.796616   5.961172
    35  H    8.110402   6.617999   7.693865   7.542867   8.748848
                   16         17         18         19         20
    16  C    0.000000
    17  H    1.091917   0.000000
    18  C    1.351011   2.136750   0.000000
    19  C    2.414275   3.427362   1.476976   0.000000
    20  C    3.755049   4.711734   2.606396   1.437636   0.000000
    21  C    4.415543   5.225438   3.178573   2.537598   1.420326
    22  C    2.461326   2.701472   1.480319   2.578397   3.174034
    23  C    3.645072   3.942666   2.511786   3.044601   3.197703
    24  H    3.910734   4.410023   2.724956   2.744101   2.735160
    25  C    4.830568   4.924522   3.789036   4.403924   4.370548
    26  H    5.759867   5.912276   4.662487   5.052272   4.820861
    27  C    5.128228   4.981422   4.290763   5.203358   5.292430
    28  H    6.202452   5.998623   5.381512   6.261091   6.251208
    29  C    4.365558   4.060585   3.783785   4.955244   5.294853
    30  H    5.054516   4.594247   4.655063   5.893858   6.259353
    31  C    3.001916   2.790886   2.502680   3.797296   4.374484
    32  Br   2.923507   2.417906   3.213371   4.548405   5.380393
    33  O    6.705791   7.391153   5.482527   4.993625   3.773929
    34  H    4.099170   4.755315   2.924827   2.798480   2.171845
    35  H    6.851433   7.421522   5.613106   5.343955   4.239079
                   21         22         23         24         25
    21  C    0.000000
    22  C    3.256127   0.000000
    23  C    3.218209   1.403052   0.000000
    24  H    3.072545   2.160669   1.091779   0.000000
    25  C    4.059131   2.428691   1.392521   2.155292   0.000000
    26  H    4.504420   3.414594   2.153322   2.476505   1.092218
    27  C    4.796204   2.811370   2.417498   3.405158   1.394495
    28  H    5.643497   3.902745   3.406983   4.305827   2.160634
    29  C    4.844613   2.430768   2.786030   3.877799   2.410554
    30  H    5.722597   3.417531   3.878522   4.970273   3.402450
    31  C    4.160692   1.404449   2.412883   3.404118   2.783479
    32  Br   5.249301   3.027748   4.343052   5.187858   4.866305
    33  O    2.456216   5.177074   4.886496   4.875631   5.118339
    34  H    1.081079   2.760503   2.997577   3.227327   3.707615
    35  H    2.873507   5.056046   4.679398   4.817283   4.659709
                   26         27         28         29         30
    26  H    0.000000
    27  C    2.159100   0.000000
    28  H    2.490148   1.091903   0.000000
    29  C    3.402224   1.395029   2.161537   0.000000
    30  H    4.307131   2.159849   2.491433   1.092583   0.000000
    31  C    3.875644   2.416039   3.406083   1.392079   2.154429
    32  Br   5.958130   4.345980   5.188590   3.030281   3.097606
    33  O    5.276401   5.620569   6.108955   5.903841   6.575904
    34  H    4.342147   4.157093   5.007407   4.014260   4.800879
    35  H    4.777690   5.029131   5.392268   5.408543   6.019379
                   31         32         33         34         35
    31  C    0.000000
    32  Br   2.083952   0.000000
    33  O    5.698057   6.812832   0.000000
    34  H    3.363148   4.373803   2.640691   0.000000
    35  H    5.419403   6.663349   0.960004   2.797351   0.000000
 Stoichiometry    C19H13BrO2
 Framework group  C1[X(C19H13BrO2)]
 Deg. of freedom    99
 Full point group                 C1      NOp   1
 Largest Abelian subgroup         C1      NOp   1
 Largest concise Abelian subgroup C1      NOp   1
                         Standard orientation:                         
 ---------------------------------------------------------------------
 Center     Atomic      Atomic             Coordinates (Angstroms)
 Number     Number       Type             X           Y           Z
 ---------------------------------------------------------------------
      1          8           0       -0.542671    3.416535    0.458944
      2          6           0       -2.647598   -2.076851   -1.055832
      3          6           0       -3.986413   -1.858843   -0.710700
      4          1           0       -4.743268   -2.617097   -0.912478
      5          6           0       -4.282260   -0.636687   -0.153212
      6          1           0       -5.316510   -0.391761    0.101827
      7          6           0       -3.284938    0.344793    0.081421
      8          6           0       -3.660605    1.629761    0.555324
      9          1           0       -4.712825    1.816297    0.784873
     10          6           0       -2.744280    2.640500    0.664177
     11          1           0       -3.021491    3.652489    0.963439
     12          6           0       -1.386576    2.376932    0.376512
     13          6           0        0.656792    3.249077   -0.292952
     14          1           0        0.392484    3.250523   -1.371303
     15          1           0        1.273430    4.132178   -0.083612
     16          6           0        1.318386    1.977391    0.110604
     17          1           0        2.375416    1.959467    0.383825
     18          6           0        0.527726    0.892858    0.265126
     19          6           0       -0.925287    1.086348    0.084098
     20          6           0       -1.900916    0.069692   -0.201131
     21          6           0       -1.625238   -1.180815   -0.815591
     22          6           0        1.074341   -0.368674    0.813845
     23          6           0        0.342707   -1.138811    1.730444
     24          1           0       -0.635273   -0.788712    2.066553
     25          6           0        0.838224   -2.356900    2.188525
     26          1           0        0.241735   -2.957712    2.878573
     27          6           0        2.078703   -2.821113    1.752251
     28          1           0        2.450206   -3.791972    2.086421
     29          6           0        2.833030   -2.045674    0.871460
     30          1           0        3.802980   -2.405240    0.519828
     31          6           0        2.336453   -0.831053    0.406712
     32         35           0        3.416778    0.268608   -0.995607
     33          8           0       -2.303555   -3.358950   -1.725872
     34          1           0       -0.611747   -1.431704   -1.095985
     35          1           0       -1.686046   -4.000308   -1.366775
 ---------------------------------------------------------------------
 Rotational constants (GHZ):      0.3251526      0.1861117      0.1410395
 Leave Link  202 at Thu Jul 21 13:31:29 2022, MaxMem=   268435456 cpu:         0.2
 (Enter /share/programs/GAUSSIAN/64/g09/l301.exe)
 Standard basis: def2SVP (5D, 7F)
 Ernie: Thresh=  0.10000D-02 Tol=  0.10000D-05 Strict=F.
 There are   415 symmetry adapted cartesian basis functions of A   symmetry.
 There are   391 symmetry adapted basis functions of A   symmetry.
   391 basis functions,   696 primitive gaussians,   415 cartesian basis functions
    89 alpha electrons       89 beta electrons
       nuclear repulsion energy      2113.0207646891 Hartrees.
 IExCor= 1009 DFT=T Ex+Corr=PBE1PBE ExCW=0 ScaHFX=  0.250000
 ScaDFX=  0.750000  0.750000  1.000000  1.000000 ScalE2=  1.000000  1.000000
 IRadAn=      0 IRanWt=     -1 IRanGd=            0 ICorTp=0 IEmpDi=131
 NAtoms=   35 NActive=   35 NUniq=   35 SFac= 1.00D+00 NAtFMM=   60 NAOKFM=F Big=F
 Integral buffers will be    131072 words long.
 Raffenetti 2 integral format.
 Two-electron integral symmetry is turned on.
 R6Disp:  Grimme-D3 Dispersion energy=       -0.0244979199 Hartrees.
 Nuclear repulsion after empirical dispersion term =     2112.9962667692 Hartrees.
 Leave Link  301 at Thu Jul 21 13:31:30 2022, MaxMem=   268435456 cpu:         0.9
 (Enter /share/programs/GAUSSIAN/64/g09/l302.exe)
 NPDir=0 NMtPBC=     1 NCelOv=     1 NCel=       1 NClECP=     1 NCelD=      1
         NCelK=      1 NCelE2=     1 NClLst=     1 CellRange=     0.0.
 One-electron integrals computed using PRISM.
   1 Symmetry operations used in ECPInt.
 ECPInt:  NShTT=   15753 NPrTT=   60730 LenC2=   14515 LenP2D=   38400.
 LDataN:  DoStor=T MaxTD1= 4 Len=   56
 NBasis=   391 RedAO= T EigKep=  2.27D-04  NBF=   391
 NBsUse=   391 1.00D-06 EigRej= -1.00D+00 NBFU=   391
 Precomputing XC quadrature grid using
 IXCGrd= 4 IRadAn=           0 IRanWt=          -1 IRanGd=           0 AccXCQ= 0.00D+00.
 Generated NRdTot=       0 NPtTot=           0 NUsed=           0 NTot=          32
 NSgBfM=   412   412   412   412   412 MxSgAt=    35 MxSgA2=    35.
 Leave Link  302 at Thu Jul 21 13:31:30 2022, MaxMem=   268435456 cpu:         9.0
 (Enter /share/programs/GAUSSIAN/64/g09/l303.exe)
 DipDrv:  MaxL=1.
 Leave Link  303 at Thu Jul 21 13:31:30 2022, MaxMem=   268435456 cpu:         1.0
 (Enter /share/programs/GAUSSIAN/64/g09/l401.exe)
 ExpMin= 1.22D-01 ExpMax= 1.13D+05 ExpMxC= 1.70D+04 IAcc=2 IRadAn=         4 AccDes= 0.00D+00
 Harris functional with IExCor= 1009 and IRadAn=       4 diagonalized for initial guess.
 HarFok:  IExCor= 1009 AccDes= 0.00D+00 IRadAn=         4 IDoV= 1 UseB2=F ITyADJ=14
 ICtDFT=  3500011 ScaDFX=  1.000000  1.000000  1.000000  1.000000
 FoFCou: FMM=F IPFlag=           0 FMFlag=      100000 FMFlg1=           0
         NFxFlg=           0 DoJE=T BraDBF=F KetDBF=T FulRan=T
         wScrn=  0.000000 ICntrl=     500 IOpCl=  0 I1Cent=   200000004 NGrid=           0
         NMat0=    1 NMatS0=      1 NMatT0=    0 NMatD0=    1 NMtDS0=    0 NMtDT0=    0
 Petite list used in FoFCou.
 Harris En= -3454.25919251960    
 JPrj=0 DoOrth=F DoCkMO=F.
 Leave Link  401 at Thu Jul 21 13:31:33 2022, MaxMem=   268435456 cpu:        25.1
 (Enter /share/programs/GAUSSIAN/64/g09/l502.exe)
 Closed shell SCF:
 Using DIIS extrapolation, IDIIS=  1040.
 Integral symmetry usage will be decided dynamically.
 IVT=      543333 IEndB=      543333 NGot=   268435456 MDV=   268081404
 LenX=   268081404 LenY=   267908738
 Requested convergence on RMS density matrix=1.00D-08 within 128 cycles.
 Requested convergence on MAX density matrix=1.00D-06.
 Requested convergence on             energy=1.00D-06.
 No special actions if energy rises.
 Fock matrices will be formed incrementally for  20 cycles.
 Integral accuracy reduced to 1.0D-05 until final iterations.

 Cycle   1  Pass 0  IDiag  1:
 FoFJK:  IHMeth= 1 ICntrl=       0 DoSepK=F KAlg= 0 I1Cent=   0 FoldK=F
 IRaf= 840000000 NMat=   1 IRICut=       1 DoRegI=T DoRafI=F ISym2E= 0.
 FoFCou: FMM=F IPFlag=           0 FMFlag=      100000 FMFlg1=           0
         NFxFlg=           0 DoJE=F BraDBF=F KetDBF=F FulRan=T
         wScrn=  0.000000 ICntrl=       0 IOpCl=  0 I1Cent=           0 NGrid=           0
         NMat0=    1 NMatS0=      1 NMatT0=    0 NMatD0=    1 NMtDS0=    0 NMtDT0=    0
 Symmetry not used in FoFCou.
 E= -3453.83833897063    
 DIIS: error= 2.42D-02 at cycle   1 NSaved=   1.
 NSaved= 1 IEnMin= 1 EnMin= -3453.83833897063     IErMin= 1 ErrMin= 2.42D-02
 ErrMax= 2.42D-02  0.00D+00 EMaxC= 1.00D-01 BMatC= 4.03D-01 BMatP= 4.03D-01
 IDIUse=3 WtCom= 7.58D-01 WtEn= 2.42D-01
 Coeff-Com:  0.100D+01
 Coeff-En:   0.100D+01
 Coeff:      0.100D+01
 Gap=     0.172 Goal=   None    Shift=    0.000
 GapD=    0.172 DampG=1.000 DampE=0.500 DampFc=0.5000 IDamp=-1.
 Damping current iteration by 5.00D-01
 RMSDP=4.06D-03 MaxDP=1.26D-01              OVMax= 1.44D-01

 Cycle   2  Pass 0  IDiag  1:
 RMSU=  1.96D-03    CP:  9.76D-01
 E= -3453.99939894195     Delta-E=       -0.161059971321 Rises=F Damp=T
 DIIS: error= 4.08D-03 at cycle   2 NSaved=   2.
 NSaved= 2 IEnMin= 2 EnMin= -3453.99939894195     IErMin= 2 ErrMin= 4.08D-03
 ErrMax= 4.08D-03  0.00D+00 EMaxC= 1.00D-01 BMatC= 2.26D-02 BMatP= 4.03D-01
 IDIUse=3 WtCom= 9.59D-01 WtEn= 4.08D-02
 Coeff-Com: -0.416D-01 0.104D+01
 Coeff-En:   0.000D+00 0.100D+01
 Coeff:     -0.399D-01 0.104D+01
 Gap=     0.193 Goal=   None    Shift=    0.000
 RMSDP=1.56D-03 MaxDP=4.19D-02 DE=-1.61D-01 OVMax= 1.06D-01

 Cycle   3  Pass 0  IDiag  1:
 RMSU=  1.47D-03    CP:  9.60D-01  1.20D+00
 E= -3454.15817943384     Delta-E=       -0.158780491897 Rises=F Damp=F
 DIIS: error= 3.09D-03 at cycle   3 NSaved=   3.
 NSaved= 3 IEnMin= 3 EnMin= -3454.15817943384     IErMin= 3 ErrMin= 3.09D-03
 ErrMax= 3.09D-03  0.00D+00 EMaxC= 1.00D-01 BMatC= 1.54D-02 BMatP= 2.26D-02
 IDIUse=3 WtCom= 9.69D-01 WtEn= 3.09D-02
 Coeff-Com: -0.772D-01 0.483D+00 0.595D+00
 Coeff-En:   0.000D+00 0.000D+00 0.100D+01
 Coeff:     -0.748D-01 0.468D+00 0.607D+00
 Gap=     0.161 Goal=   None    Shift=    0.000
 RMSDP=6.85D-04 MaxDP=2.26D-02 DE=-1.59D-01 OVMax= 4.46D-02

 Cycle   4  Pass 0  IDiag  1:
 RMSU=  4.70D-04    CP:  9.60D-01  1.28D+00  6.78D-01
 E= -3454.17069973715     Delta-E=       -0.012520303303 Rises=F Damp=F
 DIIS: error= 2.28D-03 at cycle   4 NSaved=   4.
 NSaved= 4 IEnMin= 4 EnMin= -3454.17069973715     IErMin= 4 ErrMin= 2.28D-03
 ErrMax= 2.28D-03  0.00D+00 EMaxC= 1.00D-01 BMatC= 4.18D-03 BMatP= 1.54D-02
 IDIUse=3 WtCom= 9.77D-01 WtEn= 2.28D-02
 Coeff-Com: -0.397D-01 0.159D+00 0.377D+00 0.504D+00
 Coeff-En:   0.000D+00 0.000D+00 0.215D+00 0.785D+00
 Coeff:     -0.388D-01 0.156D+00 0.373D+00 0.510D+00
 Gap=     0.158 Goal=   None    Shift=    0.000
 RMSDP=2.65D-04 MaxDP=8.81D-03 DE=-1.25D-02 OVMax= 2.01D-02

 Cycle   5  Pass 0  IDiag  1:
 RMSU=  1.49D-04    CP:  9.60D-01  1.29D+00  7.44D-01  5.85D-01
 E= -3454.17481844635     Delta-E=       -0.004118709206 Rises=F Damp=F
 DIIS: error= 4.72D-04 at cycle   5 NSaved=   5.
 NSaved= 5 IEnMin= 5 EnMin= -3454.17481844635     IErMin= 5 ErrMin= 4.72D-04
 ErrMax= 4.72D-04  0.00D+00 EMaxC= 1.00D-01 BMatC= 3.30D-04 BMatP= 4.18D-03
 IDIUse=3 WtCom= 9.95D-01 WtEn= 4.72D-03
 Coeff-Com: -0.117D-01 0.356D-01 0.148D+00 0.287D+00 0.542D+00
 Coeff-En:   0.000D+00 0.000D+00 0.000D+00 0.483D-02 0.995D+00
 Coeff:     -0.117D-01 0.355D-01 0.147D+00 0.285D+00 0.544D+00
 Gap=     0.158 Goal=   None    Shift=    0.000
 RMSDP=8.15D-05 MaxDP=3.08D-03 DE=-4.12D-03 OVMax= 5.30D-03

 Cycle   6  Pass 0  IDiag  1:
 RMSU=  6.01D-05    CP:  9.59D-01  1.29D+00  7.44D-01  6.36D-01  6.75D-01
 E= -3454.17513986234     Delta-E=       -0.000321415990 Rises=F Damp=F
 DIIS: error= 1.93D-04 at cycle   6 NSaved=   6.
 NSaved= 6 IEnMin= 6 EnMin= -3454.17513986234     IErMin= 6 ErrMin= 1.93D-04
 ErrMax= 1.93D-04  0.00D+00 EMaxC= 1.00D-01 BMatC= 3.32D-05 BMatP= 3.30D-04
 IDIUse=3 WtCom= 9.98D-01 WtEn= 1.93D-03
 Coeff-Com: -0.273D-02 0.489D-02 0.471D-01 0.109D+00 0.309D+00 0.533D+00
 Coeff-En:   0.000D+00 0.000D+00 0.000D+00 0.000D+00 0.348D-01 0.965D+00
 Coeff:     -0.273D-02 0.488D-02 0.470D-01 0.109D+00 0.308D+00 0.534D+00
 Gap=     0.158 Goal=   None    Shift=    0.000
 RMSDP=2.92D-05 MaxDP=1.08D-03 DE=-3.21D-04 OVMax= 1.81D-03

 Cycle   7  Pass 0  IDiag  1:
 RMSU=  1.41D-05    CP:  9.59D-01  1.29D+00  7.51D-01  6.35D-01  6.89D-01
                    CP:  6.17D-01
 E= -3454.17517535378     Delta-E=       -0.000035491435 Rises=F Damp=F
 DIIS: error= 5.87D-05 at cycle   7 NSaved=   7.
 NSaved= 7 IEnMin= 7 EnMin= -3454.17517535378     IErMin= 7 ErrMin= 5.87D-05
 ErrMax= 5.87D-05  0.00D+00 EMaxC= 1.00D-01 BMatC= 3.56D-06 BMatP= 3.32D-05
 IDIUse=1 WtCom= 1.00D+00 WtEn= 0.00D+00
 Coeff-Com: -0.116D-02 0.111D-02 0.220D-01 0.530D-01 0.164D+00 0.329D+00
 Coeff-Com:  0.432D+00
 Coeff:     -0.116D-02 0.111D-02 0.220D-01 0.530D-01 0.164D+00 0.329D+00
 Coeff:      0.432D+00
 Gap=     0.158 Goal=   None    Shift=    0.000
 RMSDP=8.55D-06 MaxDP=2.78D-04 DE=-3.55D-05 OVMax= 7.80D-04

 Initial convergence to 1.0D-05 achieved.  Increase integral accuracy.
 Cycle   8  Pass 1  IDiag  1:
 E= -3454.17513955141     Delta-E=        0.000035802364 Rises=F Damp=F
 DIIS: error= 2.23D-04 at cycle   1 NSaved=   1.
 NSaved= 1 IEnMin= 1 EnMin= -3454.17513955141     IErMin= 1 ErrMin= 2.23D-04
 ErrMax= 2.23D-04  0.00D+00 EMaxC= 1.00D-01 BMatC= 6.56D-06 BMatP= 6.56D-06
 IDIUse=3 WtCom= 9.98D-01 WtEn= 2.23D-03
 Coeff-Com:  0.100D+01
 Coeff-En:   0.100D+01
 Coeff:      0.100D+01
 Gap=     0.158 Goal=   None    Shift=    0.000
 RMSDP=8.55D-06 MaxDP=2.78D-04 DE= 3.58D-05 OVMax= 7.38D-04

 Cycle   9  Pass 1  IDiag  1:
 RMSU=  2.20D-04    CP:  1.00D+00
 E= -3454.17514510046     Delta-E=       -0.000005549049 Rises=F Damp=F
 DIIS: error= 3.46D-05 at cycle   2 NSaved=   2.
 NSaved= 2 IEnMin= 2 EnMin= -3454.17514510046     IErMin= 2 ErrMin= 3.46D-05
 ErrMax= 3.46D-05  0.00D+00 EMaxC= 1.00D-01 BMatC= 1.24D-06 BMatP= 6.56D-06
 IDIUse=1 WtCom= 1.00D+00 WtEn= 0.00D+00
 Coeff-Com:  0.197D+00 0.803D+00
 Coeff:      0.197D+00 0.803D+00
 Gap=     0.158 Goal=   None    Shift=    0.000
 RMSDP=1.08D-05 MaxDP=3.58D-04 DE=-5.55D-06 OVMax= 1.03D-03

 Cycle  10  Pass 1  IDiag  1:
 RMSU=  1.05D-05    CP:  1.00D+00  1.01D+00
 E= -3454.17514280666     Delta-E=        0.000002293802 Rises=F Damp=F
 DIIS: error= 5.74D-05 at cycle   3 NSaved=   3.
 NSaved= 3 IEnMin= 2 EnMin= -3454.17514510046     IErMin= 2 ErrMin= 3.46D-05
 ErrMax= 5.74D-05  0.00D+00 EMaxC= 1.00D-01 BMatC= 3.27D-06 BMatP= 1.24D-06
 IDIUse=1 WtCom= 1.00D+00 WtEn= 0.00D+00
 Coeff-Com: -0.685D-02 0.622D+00 0.385D+00
 Coeff:     -0.685D-02 0.622D+00 0.385D+00
 Gap=     0.158 Goal=   None    Shift=    0.000
 RMSDP=6.66D-06 MaxDP=2.19D-04 DE= 2.29D-06 OVMax= 6.26D-04

 Cycle  11  Pass 1  IDiag  1:
 RMSU=  1.09D-06    CP:  1.00D+00  1.02D+00  3.83D-01
 E= -3454.17514649751     Delta-E=       -0.000003690849 Rises=F Damp=F
 DIIS: error= 4.09D-06 at cycle   4 NSaved=   4.
 NSaved= 4 IEnMin= 4 EnMin= -3454.17514649751     IErMin= 4 ErrMin= 4.09D-06
 ErrMax= 4.09D-06  0.00D+00 EMaxC= 1.00D-01 BMatC= 1.34D-08 BMatP= 1.24D-06
 IDIUse=1 WtCom= 1.00D+00 WtEn= 0.00D+00
 Coeff-Com: -0.543D-02 0.366D+00 0.230D+00 0.410D+00
 Coeff:     -0.543D-02 0.366D+00 0.230D+00 0.410D+00
 Gap=     0.158 Goal=   None    Shift=    0.000
 RMSDP=4.65D-07 MaxDP=1.72D-05 DE=-3.69D-06 OVMax= 2.89D-05

 Cycle  12  Pass 1  IDiag  1:
 RMSU=  3.45D-07    CP:  1.00D+00  1.02D+00  3.90D-01  7.23D-01
 E= -3454.17514651028     Delta-E=       -0.000000012774 Rises=F Damp=F
 DIIS: error= 6.21D-07 at cycle   5 NSaved=   5.
 NSaved= 5 IEnMin= 5 EnMin= -3454.17514651028     IErMin= 5 ErrMin= 6.21D-07
 ErrMax= 6.21D-07  0.00D+00 EMaxC= 1.00D-01 BMatC= 4.04D-10 BMatP= 1.34D-08
 IDIUse=1 WtCom= 1.00D+00 WtEn= 0.00D+00
 Coeff-Com: -0.219D-02 0.135D+00 0.849D-01 0.199D+00 0.583D+00
 Coeff:     -0.219D-02 0.135D+00 0.849D-01 0.199D+00 0.583D+00
 Gap=     0.158 Goal=   None    Shift=    0.000
 RMSDP=1.05D-07 MaxDP=3.06D-06 DE=-1.28D-08 OVMax= 8.21D-06

 Cycle  13  Pass 1  IDiag  1:
 RMSU=  9.91D-08    CP:  1.00D+00  1.02D+00  3.90D-01  7.34D-01  9.06D-01
 E= -3454.17514651069     Delta-E=       -0.000000000408 Rises=F Damp=F
 DIIS: error= 2.56D-07 at cycle   6 NSaved=   6.
 NSaved= 6 IEnMin= 6 EnMin= -3454.17514651069     IErMin= 6 ErrMin= 2.56D-07
 ErrMax= 2.56D-07  0.00D+00 EMaxC= 1.00D-01 BMatC= 7.72D-11 BMatP= 4.04D-10
 IDIUse=1 WtCom= 1.00D+00 WtEn= 0.00D+00
 Coeff-Com: -0.346D-03 0.167D-01 0.103D-01 0.452D-01 0.325D+00 0.603D+00
 Coeff:     -0.346D-03 0.167D-01 0.103D-01 0.452D-01 0.325D+00 0.603D+00
 Gap=     0.158 Goal=   None    Shift=    0.000
 RMSDP=4.31D-08 MaxDP=1.45D-06 DE=-4.08D-10 OVMax= 3.55D-06

 Cycle  14  Pass 1  IDiag  1:
 RMSU=  3.14D-08    CP:  1.00D+00  1.02D+00  3.90D-01  7.41D-01  9.65D-01
                    CP:  8.07D-01
 E= -3454.17514651076     Delta-E=       -0.000000000065 Rises=F Damp=F
 DIIS: error= 1.04D-07 at cycle   7 NSaved=   7.
 NSaved= 7 IEnMin= 7 EnMin= -3454.17514651076     IErMin= 7 ErrMin= 1.04D-07
 ErrMax= 1.04D-07  0.00D+00 EMaxC= 1.00D-01 BMatC= 9.25D-12 BMatP= 7.72D-11
 IDIUse=1 WtCom= 1.00D+00 WtEn= 0.00D+00
 Coeff-Com:  0.961D-04-0.838D-02-0.553D-02-0.204D-02 0.907D-01 0.317D+00
 Coeff-Com:  0.608D+00
 Coeff:      0.961D-04-0.838D-02-0.553D-02-0.204D-02 0.907D-01 0.317D+00
 Coeff:      0.608D+00
 Gap=     0.158 Goal=   None    Shift=    0.000
 RMSDP=1.47D-08 MaxDP=4.67D-07 DE=-6.55D-11 OVMax= 1.23D-06

 Cycle  15  Pass 1  IDiag  1:
 RMSU=  1.00D-08    CP:  1.00D+00  1.02D+00  3.90D-01  7.48D-01  9.63D-01
                    CP:  8.24D-01  7.72D-01
 E= -3454.17514651081     Delta-E=       -0.000000000052 Rises=F Damp=F
 DIIS: error= 2.84D-08 at cycle   8 NSaved=   8.
 NSaved= 8 IEnMin= 8 EnMin= -3454.17514651081     IErMin= 8 ErrMin= 2.84D-08
 ErrMax= 2.84D-08  0.00D+00 EMaxC= 1.00D-01 BMatC= 6.98D-13 BMatP= 9.25D-12
 IDIUse=1 WtCom= 1.00D+00 WtEn= 0.00D+00
 Coeff-Com:  0.802D-04-0.579D-02-0.379D-02-0.510D-02 0.194D-01 0.105D+00
 Coeff-Com:  0.288D+00 0.602D+00
 Coeff:      0.802D-04-0.579D-02-0.379D-02-0.510D-02 0.194D-01 0.105D+00
 Coeff:      0.288D+00 0.602D+00
 Gap=     0.158 Goal=   None    Shift=    0.000
 RMSDP=3.65D-09 MaxDP=1.42D-07 DE=-5.18D-11 OVMax= 2.87D-07

 SCF Done:  E(RPBE1PBE) =  -3454.17514651     A.U. after   15 cycles
            NFock= 15  Conv=0.36D-08     -V/T= 2.0033
 KE= 3.442724770771D+03 PE=-1.242378245984D+04 EE= 3.413886275791D+03
 Leave Link  502 at Thu Jul 21 13:33:51 2022, MaxMem=   268435456 cpu:      1655.9
 (Enter /share/programs/GAUSSIAN/64/g09/l601.exe)
 Copying SCF densities to generalized density rwf, IOpCl= 0 IROHF=0.

 **********************************************************************

            Population analysis using the SCF density.

 **********************************************************************

 Orbital symmetries:
       Occupied  (A) (A) (A) (A) (A) (A) (A) (A) (A) (A) (A) (A)
                 (A) (A) (A) (A) (A) (A) (A) (A) (A) (A) (A) (A)
                 (A) (A) (A) (A) (A) (A) (A) (A) (A) (A) (A) (A)
                 (A) (A) (A) (A) (A) (A) (A) (A) (A) (A) (A) (A)
                 (A) (A) (A) (A) (A) (A) (A) (A) (A) (A) (A) (A)
                 (A) (A) (A) (A) (A) (A) (A) (A) (A) (A) (A) (A)
                 (A) (A) (A) (A) (A) (A) (A) (A) (A) (A) (A) (A)
                 (A) (A) (A) (A) (A)
       Virtual   (A) (A) (A) (A) (A) (A) (A) (A) (A) (A) (A) (A)
                 (A) (A) (A) (A) (A) (A) (A) (A) (A) (A) (A) (A)
                 (A) (A) (A) (A) (A) (A) (A) (A) (A) (A) (A) (A)
                 (A) (A) (A) (A) (A) (A) (A) (A) (A) (A) (A) (A)
                 (A) (A) (A) (A) (A) (A) (A) (A) (A) (A) (A) (A)
                 (A) (A) (A) (A) (A) (A) (A) (A) (A) (A) (A) (A)
                 (A) (A) (A) (A) (A) (A) (A) (A) (A) (A) (A) (A)
                 (A) (A) (A) (A) (A) (A) (A) (A) (A) (A) (A) (A)
                 (A) (A) (A) (A) (A) (A) (A) (A) (A) (A) (A) (A)
                 (A) (A) (A) (A) (A) (A) (A) (A) (A) (A) (A) (A)
                 (A) (A) (A) (A) (A) (A) (A) (A) (A) (A) (A) (A)
                 (A) (A) (A) (A) (A) (A) (A) (A) (A) (A) (A) (A)
                 (A) (A) (A) (A) (A) (A) (A) (A) (A) (A) (A) (A)
                 (A) (A) (A) (A) (A) (A) (A) (A) (A) (A) (A) (A)
                 (A) (A) (A) (A) (A) (A) (A) (A) (A) (A) (A) (A)
                 (A) (A) (A) (A) (A) (A) (A) (A) (A) (A) (A) (A)
                 (A) (A) (A) (A) (A) (A) (A) (A) (A) (A) (A) (A)
                 (A) (A) (A) (A) (A) (A) (A) (A) (A) (A) (A) (A)
                 (A) (A) (A) (A) (A) (A) (A) (A) (A) (A) (A) (A)
                 (A) (A) (A) (A) (A) (A) (A) (A) (A) (A) (A) (A)
                 (A) (A) (A) (A) (A) (A) (A) (A) (A) (A) (A) (A)
                 (A) (A) (A) (A) (A) (A) (A) (A) (A) (A) (A) (A)
                 (A) (A) (A) (A) (A) (A) (A) (A) (A) (A) (A) (A)
                 (A) (A) (A) (A) (A) (A) (A) (A) (A) (A) (A) (A)
                 (A) (A) (A) (A) (A) (A) (A) (A) (A) (A) (A) (A)
                 (A) (A)
 The electronic state is 1-A.
 Alpha  occ. eigenvalues -- -483.19456 -62.62731 -56.41757 -56.41378 -56.41357
 Alpha  occ. eigenvalues --  -19.25187 -19.21005 -10.31153 -10.30536 -10.30258
 Alpha  occ. eigenvalues --  -10.29736 -10.27272 -10.26306 -10.26055 -10.25882
 Alpha  occ. eigenvalues --  -10.25833 -10.25669 -10.25522 -10.25128 -10.24986
 Alpha  occ. eigenvalues --  -10.24919 -10.24882 -10.24240 -10.24236 -10.24046
 Alpha  occ. eigenvalues --  -10.23920  -8.77239  -6.58747  -6.57425  -6.57372
 Alpha  occ. eigenvalues --   -2.67268  -2.66917  -2.66874  -2.65816  -2.65815
 Alpha  occ. eigenvalues --   -1.10678  -1.01393  -0.90975  -0.89824  -0.85207
 Alpha  occ. eigenvalues --   -0.84430  -0.81004  -0.79299  -0.78488  -0.76662
 Alpha  occ. eigenvalues --   -0.75397  -0.74372  -0.69729  -0.66041  -0.64572
 Alpha  occ. eigenvalues --   -0.63655  -0.62108  -0.61317  -0.57237  -0.56177
 Alpha  occ. eigenvalues --   -0.54785  -0.54130  -0.51725  -0.51416  -0.50176
 Alpha  occ. eigenvalues --   -0.48599  -0.47786  -0.47484  -0.46185  -0.45414
 Alpha  occ. eigenvalues --   -0.45083  -0.44386  -0.43105  -0.42653  -0.42070
 Alpha  occ. eigenvalues --   -0.41328  -0.40429  -0.39178  -0.39020  -0.38290
 Alpha  occ. eigenvalues --   -0.36845  -0.36129  -0.36045  -0.34608  -0.33392
 Alpha  occ. eigenvalues --   -0.32264  -0.31629  -0.30247  -0.29825  -0.29150
 Alpha  occ. eigenvalues --   -0.27102  -0.25203  -0.24246  -0.21500
 Alpha virt. eigenvalues --   -0.05726  -0.03927  -0.03646  -0.02368  -0.01016
 Alpha virt. eigenvalues --    0.00691   0.05411   0.06548   0.07656   0.08322
 Alpha virt. eigenvalues --    0.09031   0.09832   0.10056   0.11149   0.11571
 Alpha virt. eigenvalues --    0.12567   0.13820   0.14108   0.14550   0.15148
 Alpha virt. eigenvalues --    0.15647   0.16832   0.17305   0.18719   0.21191
 Alpha virt. eigenvalues --    0.22199   0.23849   0.25113   0.25596   0.27268
 Alpha virt. eigenvalues --    0.27752   0.28382   0.28833   0.29215   0.29542
 Alpha virt. eigenvalues --    0.30084   0.31545   0.32999   0.33502   0.34693
 Alpha virt. eigenvalues --    0.35224   0.35649   0.37535   0.37795   0.38226
 Alpha virt. eigenvalues --    0.39444   0.40189   0.40522   0.41514   0.41820
 Alpha virt. eigenvalues --    0.42515   0.43150   0.44886   0.45936   0.46058
 Alpha virt. eigenvalues --    0.46860   0.47531   0.48080   0.48425   0.48793
 Alpha virt. eigenvalues --    0.49373   0.49913   0.50279   0.50858   0.51057
 Alpha virt. eigenvalues --    0.51421   0.52366   0.52756   0.53240   0.53956
 Alpha virt. eigenvalues --    0.54225   0.55984   0.56779   0.57127   0.57761
 Alpha virt. eigenvalues --    0.59127   0.59887   0.60530   0.61056   0.62161
 Alpha virt. eigenvalues --    0.62906   0.63115   0.63931   0.64685   0.65373
 Alpha virt. eigenvalues --    0.65726   0.65867   0.66144   0.66334   0.66763
 Alpha virt. eigenvalues --    0.67163   0.67694   0.68180   0.68910   0.69452
 Alpha virt. eigenvalues --    0.70135   0.70707   0.71927   0.72398   0.72780
 Alpha virt. eigenvalues --    0.73143   0.74078   0.75386   0.76078   0.76306
 Alpha virt. eigenvalues --    0.76994   0.77137   0.79444   0.80818   0.81188
 Alpha virt. eigenvalues --    0.81692   0.82157   0.82998   0.84097   0.84271
 Alpha virt. eigenvalues --    0.85383   0.86603   0.87569   0.88294   0.89953
 Alpha virt. eigenvalues --    0.92297   0.92520   0.93617   0.94433   0.96133
 Alpha virt. eigenvalues --    0.97847   0.99772   1.01958   1.02666   1.05103
 Alpha virt. eigenvalues --    1.05701   1.06644   1.08967   1.10670   1.12711
 Alpha virt. eigenvalues --    1.13076   1.13418   1.14950   1.16990   1.18983
 Alpha virt. eigenvalues --    1.19725   1.20218   1.22784   1.23836   1.24041
 Alpha virt. eigenvalues --    1.24847   1.25564   1.27712   1.27778   1.28743
 Alpha virt. eigenvalues --    1.29029   1.29491   1.30929   1.33936   1.34790
 Alpha virt. eigenvalues --    1.35564   1.36506   1.37783   1.41802   1.44533
 Alpha virt. eigenvalues --    1.45970   1.48199   1.50015   1.50388   1.51696
 Alpha virt. eigenvalues --    1.53508   1.54988   1.57006   1.58574   1.60753
 Alpha virt. eigenvalues --    1.62736   1.65639   1.66400   1.68670   1.68857
 Alpha virt. eigenvalues --    1.70166   1.70645   1.70844   1.71588   1.71908
 Alpha virt. eigenvalues --    1.72712   1.73359   1.73395   1.74900   1.75674
 Alpha virt. eigenvalues --    1.75780   1.76129   1.76483   1.77816   1.78699
 Alpha virt. eigenvalues --    1.78979   1.79865   1.80667   1.81306   1.82550
 Alpha virt. eigenvalues --    1.83149   1.84313   1.85143   1.86228   1.87312
 Alpha virt. eigenvalues --    1.88152   1.89536   1.91066   1.91808   1.92581
 Alpha virt. eigenvalues --    1.94830   1.95061   1.95850   1.96983   1.97559
 Alpha virt. eigenvalues --    1.98857   2.00588   2.00879   2.02208   2.03161
 Alpha virt. eigenvalues --    2.04544   2.06236   2.07680   2.08616   2.10978
 Alpha virt. eigenvalues --    2.11672   2.12299   2.14580   2.14989   2.15280
 Alpha virt. eigenvalues --    2.18101   2.18548   2.19207   2.20194   2.21955
 Alpha virt. eigenvalues --    2.22756   2.24603   2.25571   2.26359   2.27564
 Alpha virt. eigenvalues --    2.28937   2.29227   2.30859   2.31495   2.32243
 Alpha virt. eigenvalues --    2.32821   2.34247   2.36897   2.37938   2.39610
 Alpha virt. eigenvalues --    2.41168   2.42338   2.46264   2.47479   2.48459
 Alpha virt. eigenvalues --    2.49169   2.53847   2.56855   2.57204   2.60544
 Alpha virt. eigenvalues --    2.60786   2.62289   2.62488   2.63258   2.64370
 Alpha virt. eigenvalues --    2.65645   2.66035   2.71327   2.72018   2.73664
 Alpha virt. eigenvalues --    2.74941   2.76227   2.77353   2.79592   2.80426
 Alpha virt. eigenvalues --    2.83497   2.84440   2.85446   2.85617   2.89457
 Alpha virt. eigenvalues --    2.90104   2.92748   2.94907   2.96703   2.97531
 Alpha virt. eigenvalues --    3.00661   3.01791   3.05783   3.07557   3.08304
 Alpha virt. eigenvalues --    3.12552   3.16229   3.19041   3.24816   3.26591
 Alpha virt. eigenvalues --    3.34157   3.42768   3.47387   3.49058   3.51435
 Alpha virt. eigenvalues --    3.54332   3.57544   3.63767   3.66002   3.70188
 Alpha virt. eigenvalues --    3.74588   3.86575
          Condensed to atoms (all electrons):
               1          2          3          4          5          6
     1  O    7.880693   0.000001   0.000000   0.000000   0.000004   0.000000
     2  C    0.000001   5.001095   0.233045  -0.064440   0.115910   0.013356
     3  C    0.000000   0.233045   5.193307   0.439306   0.240658  -0.064335
     4  H    0.000000  -0.064440   0.439306   0.651282  -0.066406  -0.011595
     5  C    0.000004   0.115910   0.240658  -0.066406   5.175398   0.445160
     6  H    0.000000   0.013356  -0.064335  -0.011595   0.445160   0.668882
     7  C    0.000257  -0.147312   0.077243   0.013877   0.302553  -0.062677
     8  C    0.003962   0.000031   0.013582  -0.000346  -0.096704  -0.020023
     9  H   -0.000098  -0.000084   0.000880  -0.000005  -0.019543   0.005346
    10  C   -0.061896   0.000138  -0.001032   0.000005   0.012356   0.001120
    11  H    0.001857   0.000000   0.000007   0.000000  -0.000347  -0.000013
    12  C    0.393223  -0.000383   0.000167   0.000001   0.000246  -0.000083
    13  C    0.295815  -0.000002   0.000000   0.000000   0.000002   0.000000
    14  H   -0.042457   0.000001   0.000000   0.000000  -0.000002   0.000000
    15  H   -0.019491   0.000000   0.000000   0.000000   0.000000   0.000000
    16  C   -0.024188   0.000020   0.000000   0.000000  -0.000001   0.000000
    17  H    0.002190   0.000000   0.000000   0.000000   0.000000   0.000000
    18  C   -0.029225  -0.000232   0.000059  -0.000001  -0.000119   0.000007
    19  C   -0.081800   0.015853  -0.003547   0.000060   0.018379  -0.000247
    20  C    0.004590   0.103303  -0.100422  -0.001915   0.012133   0.013599
    21  C   -0.000060   0.300667   0.025431   0.016173  -0.106656  -0.001680
    22  C   -0.001028  -0.000722  -0.000041   0.000001  -0.000027   0.000001
    23  C    0.000106   0.000527  -0.000128  -0.000002   0.000097   0.000000
    24  H   -0.000009  -0.000695   0.000080   0.000000   0.000104  -0.000002
    25  C    0.000000   0.000085  -0.000004   0.000000  -0.000003   0.000000
    26  H    0.000000   0.000010  -0.000002   0.000000  -0.000001   0.000000
    27  C    0.000000  -0.000021   0.000001   0.000000   0.000000   0.000000
    28  H    0.000000   0.000000   0.000000   0.000000   0.000000   0.000000
    29  C    0.000000  -0.000002   0.000000   0.000000   0.000000   0.000000
    30  H    0.000000   0.000000   0.000000   0.000000   0.000000   0.000000
    31  C   -0.000020   0.000036  -0.000002   0.000000   0.000001   0.000000
    32  Br  -0.000005   0.000002   0.000000   0.000000   0.000000   0.000000
    33  O    0.000000   0.316372  -0.056007   0.003070   0.005422  -0.000092
    34  H    0.000000  -0.069724   0.016193  -0.000295  -0.002736   0.000025
    35  H    0.000000  -0.021790   0.003802  -0.000350  -0.000281   0.000008
               7          8          9         10         11         12
     1  O    0.000257   0.003962  -0.000098  -0.061896   0.001857   0.393223
     2  C   -0.147312   0.000031  -0.000084   0.000138   0.000000  -0.000383
     3  C    0.077243   0.013582   0.000880  -0.001032   0.000007   0.000167
     4  H    0.013877  -0.000346  -0.000005   0.000005   0.000000   0.000001
     5  C    0.302553  -0.096704  -0.019543   0.012356  -0.000347   0.000246
     6  H   -0.062677  -0.020023   0.005346   0.001120  -0.000013  -0.000083
     7  C    5.404794   0.302096  -0.067024   0.060550   0.014134  -0.110385
     8  C    0.302096   5.114443   0.451136   0.325164  -0.071523   0.083242
     9  H   -0.067024   0.451136   0.670105  -0.068492  -0.012184   0.014822
    10  C    0.060550   0.325164  -0.068492   5.070560   0.442290   0.315541
    11  H    0.014134  -0.071523  -0.012184   0.442290   0.656027  -0.068386
    12  C   -0.110385   0.083242   0.014822   0.315541  -0.068386   5.012500
    13  C    0.000228  -0.000326   0.000005   0.005700  -0.000274  -0.042599
    14  H   -0.000118  -0.000121   0.000003   0.002170  -0.000022   0.012264
    15  H   -0.000001   0.000021   0.000000  -0.000599  -0.000079   0.001466
    16  C   -0.000489  -0.000206   0.000003   0.001579   0.000121  -0.050531
    17  H   -0.000006   0.000003   0.000000   0.000052  -0.000005   0.002593
    18  C    0.014908  -0.000166  -0.000013   0.011289  -0.000202  -0.065781
    19  C   -0.039047  -0.093409  -0.001909  -0.003790   0.019500   0.323357
    20  C    0.210186  -0.020912   0.014565  -0.070775  -0.001852   0.015757
    21  C   -0.002925   0.013402  -0.000215  -0.001334   0.000029   0.010571
    22  C    0.000543   0.000009   0.000000   0.000226   0.000010   0.004592
    23  C   -0.001258  -0.000087  -0.000001  -0.000030   0.000001  -0.000093
    24  H    0.000548   0.000065  -0.000002   0.000233  -0.000007  -0.001404
    25  C   -0.000060   0.000004   0.000000  -0.000004   0.000000   0.000072
    26  H    0.000001   0.000000   0.000000   0.000000   0.000000   0.000000
    27  C   -0.000001   0.000000   0.000000   0.000000   0.000000  -0.000002
    28  H    0.000000   0.000000   0.000000   0.000000   0.000000   0.000000
    29  C    0.000000   0.000000   0.000000   0.000000   0.000000   0.000005
    30  H    0.000000   0.000000   0.000000   0.000000   0.000000   0.000000
    31  C   -0.000016   0.000000   0.000000   0.000005   0.000000  -0.000416
    32  Br   0.000000   0.000000   0.000000   0.000002   0.000000   0.000002
    33  O    0.000158   0.000003   0.000000   0.000000   0.000000   0.000000
    34  H    0.018003  -0.000243   0.000008  -0.000007   0.000000  -0.000417
    35  H    0.000012  -0.000001   0.000000   0.000000   0.000000   0.000000
              13         14         15         16         17         18
     1  O    0.295815  -0.042457  -0.019491  -0.024188   0.002190  -0.029225
     2  C   -0.000002   0.000001   0.000000   0.000020   0.000000  -0.000232
     3  C    0.000000   0.000000   0.000000   0.000000   0.000000   0.000059
     4  H    0.000000   0.000000   0.000000   0.000000   0.000000  -0.000001
     5  C    0.000002  -0.000002   0.000000  -0.000001   0.000000  -0.000119
     6  H    0.000000   0.000000   0.000000   0.000000   0.000000   0.000007
     7  C    0.000228  -0.000118  -0.000001  -0.000489  -0.000006   0.014908
     8  C   -0.000326  -0.000121   0.000021  -0.000206   0.000003  -0.000166
     9  H    0.000005   0.000003   0.000000   0.000003   0.000000  -0.000013
    10  C    0.005700   0.002170  -0.000599   0.001579   0.000052   0.011289
    11  H   -0.000274  -0.000022  -0.000079   0.000121  -0.000005  -0.000202
    12  C   -0.042599   0.012264   0.001466  -0.050531   0.002593  -0.065781
    13  C    4.433950   0.370168   0.382813   0.378093  -0.036615  -0.036865
    14  H    0.370168   0.672468  -0.032023  -0.020554   0.006704  -0.025448
    15  H    0.382813  -0.032023   0.633846  -0.017556  -0.008684   0.008122
    16  C    0.378093  -0.020554  -0.017556   5.096815   0.402466   0.597674
    17  H   -0.036615   0.006704  -0.008684   0.402466   0.611346  -0.029991
    18  C   -0.036865  -0.025448   0.008122   0.597674  -0.029991   5.100433
    19  C   -0.024330   0.003019   0.002966  -0.069420   0.007071   0.294008
    20  C   -0.000703  -0.000456   0.000139   0.012590  -0.000431  -0.051647
    21  C   -0.000058  -0.000064   0.000000   0.000103   0.000012  -0.017407
    22  C    0.012757  -0.000210  -0.000386  -0.074213  -0.012455   0.311582
    23  C   -0.000231   0.000023   0.000005   0.008707  -0.000464  -0.057605
    24  H   -0.000042   0.000001   0.000000  -0.000092   0.000002  -0.022343
    25  C    0.000009   0.000000   0.000000  -0.000225   0.000023   0.013264
    26  H    0.000000   0.000000   0.000000   0.000002   0.000000  -0.000344
    27  C    0.000000   0.000000   0.000000  -0.000024  -0.000003   0.000856
    28  H    0.000000   0.000000   0.000000   0.000000   0.000000   0.000017
    29  C    0.000009  -0.000001   0.000001   0.001016  -0.000428   0.011730
    30  H   -0.000001   0.000000   0.000000   0.000024   0.000050  -0.000334
    31  C    0.000094  -0.000045   0.000026  -0.026900  -0.003523  -0.066095
    32  Br   0.001046   0.000548   0.000067  -0.036538   0.005027  -0.009988
    33  O    0.000000   0.000000   0.000000   0.000000   0.000000   0.000005
    34  H   -0.000006   0.000015   0.000000  -0.000036  -0.000003   0.004524
    35  H    0.000000   0.000000   0.000000   0.000000   0.000000  -0.000003
              19         20         21         22         23         24
     1  O   -0.081800   0.004590  -0.000060  -0.001028   0.000106  -0.000009
     2  C    0.015853   0.103303   0.300667  -0.000722   0.000527  -0.000695
     3  C   -0.003547  -0.100422   0.025431  -0.000041  -0.000128   0.000080
     4  H    0.000060  -0.001915   0.016173   0.000001  -0.000002   0.000000
     5  C    0.018379   0.012133  -0.106656  -0.000027   0.000097   0.000104
     6  H   -0.000247   0.013599  -0.001680   0.000001   0.000000  -0.000002
     7  C   -0.039047   0.210186  -0.002925   0.000543  -0.001258   0.000548
     8  C   -0.093409  -0.020912   0.013402   0.000009  -0.000087   0.000065
     9  H   -0.001909   0.014565  -0.000215   0.000000  -0.000001  -0.000002
    10  C   -0.003790  -0.070775  -0.001334   0.000226  -0.000030   0.000233
    11  H    0.019500  -0.001852   0.000029   0.000010   0.000001  -0.000007
    12  C    0.323357   0.015757   0.010571   0.004592  -0.000093  -0.001404
    13  C   -0.024330  -0.000703  -0.000058   0.012757  -0.000231  -0.000042
    14  H    0.003019  -0.000456  -0.000064  -0.000210   0.000023   0.000001
    15  H    0.002966   0.000139   0.000000  -0.000386   0.000005   0.000000
    16  C   -0.069420   0.012590   0.000103  -0.074213   0.008707  -0.000092
    17  H    0.007071  -0.000431   0.000012  -0.012455  -0.000464   0.000002
    18  C    0.294008  -0.051647  -0.017407   0.311582  -0.057605  -0.022343
    19  C    5.570392   0.295087  -0.086907  -0.041097  -0.022246   0.004357
    20  C    0.295087   5.401713   0.230504  -0.022881   0.001269   0.001269
    21  C   -0.086907   0.230504   5.292750   0.002181  -0.005252  -0.002341
    22  C   -0.041097  -0.022881   0.002181   5.264946   0.359254  -0.055959
    23  C   -0.022246   0.001269  -0.005252   0.359254   5.008816   0.452251
    24  H    0.004357   0.001269  -0.002341  -0.055959   0.452251   0.627704
    25  C    0.000199  -0.000541   0.001173   0.086106   0.313836  -0.065499
    26  H    0.000018   0.000027   0.000086   0.014934  -0.064211  -0.011086
    27  C    0.000035  -0.000031  -0.000189  -0.126556   0.057847   0.013619
    28  H    0.000000   0.000000  -0.000004  -0.001978   0.013984  -0.000248
    29  C   -0.000223  -0.000040   0.000193   0.049482  -0.111638  -0.002314
    30  H    0.000009   0.000001  -0.000003   0.013969  -0.000878   0.000021
    31  C    0.011633   0.000974  -0.002201   0.303916   0.033660   0.015172
    32  Br  -0.001515   0.000034  -0.000080  -0.050385   0.000234  -0.000105
    33  O   -0.000150   0.006767  -0.061242  -0.000023   0.000023  -0.000002
    34  H   -0.028009  -0.043960   0.435563  -0.001021  -0.001580   0.000186
    35  H    0.000005   0.000248  -0.006071  -0.000012   0.000085   0.000004
              25         26         27         28         29         30
     1  O    0.000000   0.000000   0.000000   0.000000   0.000000   0.000000
     2  C    0.000085   0.000010  -0.000021   0.000000  -0.000002   0.000000
     3  C   -0.000004  -0.000002   0.000001   0.000000   0.000000   0.000000
     4  H    0.000000   0.000000   0.000000   0.000000   0.000000   0.000000
     5  C   -0.000003  -0.000001   0.000000   0.000000   0.000000   0.000000
     6  H    0.000000   0.000000   0.000000   0.000000   0.000000   0.000000
     7  C   -0.000060   0.000001  -0.000001   0.000000   0.000000   0.000000
     8  C    0.000004   0.000000   0.000000   0.000000   0.000000   0.000000
     9  H    0.000000   0.000000   0.000000   0.000000   0.000000   0.000000
    10  C   -0.000004   0.000000   0.000000   0.000000   0.000000   0.000000
    11  H    0.000000   0.000000   0.000000   0.000000   0.000000   0.000000
    12  C    0.000072   0.000000  -0.000002   0.000000   0.000005   0.000000
    13  C    0.000009   0.000000   0.000000   0.000000   0.000009  -0.000001
    14  H    0.000000   0.000000   0.000000   0.000000  -0.000001   0.000000
    15  H    0.000000   0.000000   0.000000   0.000000   0.000001   0.000000
    16  C   -0.000225   0.000002  -0.000024   0.000000   0.001016   0.000024
    17  H    0.000023   0.000000  -0.000003   0.000000  -0.000428   0.000050
    18  C    0.013264  -0.000344   0.000856   0.000017   0.011730  -0.000334
    19  C    0.000199   0.000018   0.000035   0.000000  -0.000223   0.000009
    20  C   -0.000541   0.000027  -0.000031   0.000000  -0.000040   0.000001
    21  C    0.001173   0.000086  -0.000189  -0.000004   0.000193  -0.000003
    22  C    0.086106   0.014934  -0.126556  -0.001978   0.049482   0.013969
    23  C    0.313836  -0.064211   0.057847   0.013984  -0.111638  -0.000878
    24  H   -0.065499  -0.011086   0.013619  -0.000248  -0.002314   0.000021
    25  C    5.076073   0.445971   0.279328  -0.067070   0.084866   0.011952
    26  H    0.445971   0.654185  -0.069355  -0.011130   0.013091  -0.000232
    27  C    0.279328  -0.069355   5.055347   0.450108   0.323817  -0.055774
    28  H   -0.067070  -0.011130   0.450108   0.648168  -0.068112  -0.011663
    29  C    0.084866   0.013091   0.323817  -0.068112   4.989039   0.429159
    30  H    0.011952  -0.000232  -0.055774  -0.011663   0.429159   0.633439
    31  C   -0.154601  -0.001269   0.080399   0.014508   0.338294  -0.055332
    32  Br   0.000937   0.000012   0.000314  -0.000115  -0.032572   0.001182
    33  O   -0.000006   0.000000   0.000000   0.000000   0.000000   0.000000
    34  H   -0.000979  -0.000035   0.000246  -0.000004   0.000226  -0.000002
    35  H    0.000068   0.000001   0.000031   0.000000  -0.000007   0.000000
              31         32         33         34         35
     1  O   -0.000020  -0.000005   0.000000   0.000000   0.000000
     2  C    0.000036   0.000002   0.316372  -0.069724  -0.021790
     3  C   -0.000002   0.000000  -0.056007   0.016193   0.003802
     4  H    0.000000   0.000000   0.003070  -0.000295  -0.000350
     5  C    0.000001   0.000000   0.005422  -0.002736  -0.000281
[...]
    27  C    8.702097   6.600394   6.506744   6.909768   7.098082
    28  H    9.772453   7.681500   7.577740   7.955045   8.145058
    29  C    8.016620   5.972646   5.986837   6.229667   6.741467
    30  H    8.653319   6.692775   6.758813   6.868771   7.573956
    31  C    6.664890   4.621843   4.689965   4.937502   5.522059
    32  Br   6.172433   4.445911   4.724962   4.625611   5.744038
    33  O    7.466342   6.113883   7.683322   8.253291   8.500184
    34  H    5.996127   4.168204   5.259783   5.868179   6.042043
    35  H    7.725142   6.153953   7.452517   8.022946   8.239705
                   16         17         18         19         20
    16  C    0.000000
    17  H    1.093561   0.000000
    18  C    1.345449   2.115175   0.000000
    19  C    2.443174   3.444671   1.479521   0.000000
    20  C    3.797818   4.712050   2.606804   1.440111   0.000000
    21  C    4.458063   5.163633   3.120480   2.527959   1.419014
    22  C    2.403167   2.570806   1.488940   2.624810   3.177183
    23  C    3.164225   3.068185   2.507764   3.612297   4.045252
    24  H    3.135420   3.088470   2.689809   3.700072   4.252063
    25  C    4.444879   4.175511   3.796283   4.849095   5.053093
    26  H    5.216113   4.879140   4.663993   5.695076   5.878130
    27  C    5.035839   4.765320   4.304378   5.285327   5.340935
    28  H    6.102869   5.766483   5.397010   6.352645   6.317894
    29  C    4.601783   4.459578   3.811176   4.683730   4.737654
    30  H    5.447036   5.302413   4.680142   5.437303   5.385458
    31  C    3.378119   3.440724   2.528764   3.387780   3.646159
    32  Br   3.844725   4.127099   3.154456   3.515562   3.742954
    33  O    6.706232   7.260179   5.364341   4.918186   3.693689
    34  H    4.150962   4.660131   2.831452   2.794026   2.181857
    35  H    6.338168   6.768193   5.026631   4.850705   3.826515
                   21         22         23         24         25
    21  C    0.000000
    22  C    2.999731   0.000000
    23  C    3.624578   1.400386   0.000000
    24  H    4.026928   2.144925   1.092450   0.000000
    25  C    4.304093   2.436332   1.393233   2.161850   0.000000
    26  H    5.093240   3.421201   2.156775   2.490153   1.092360
    27  C    4.448882   2.815514   2.411051   3.404448   1.393765
    28  H    5.311911   3.908130   3.405240   4.313218   2.163491
    29  C    3.973280   2.439741   2.782392   3.874755   2.413997
    30  H    4.587461   3.421534   3.873810   4.966144   3.408593
    31  C    3.228009   1.404623   2.401412   3.387517   2.781484
    32  Br   3.722567   2.860323   4.153785   5.005107   4.667569
    33  O    2.390637   4.794331   5.037089   5.550346   5.103656
    34  H    1.086921   2.238912   2.681649   3.238190   3.231340
    35  H    2.412897   4.228324   4.337622   4.935747   4.240417
                   26         27         28         29         30
    26  H    0.000000
    27  C    2.161605   0.000000
    28  H    2.499028   1.092640   0.000000
    29  C    3.406309   1.394131   2.154208   0.000000
    30  H    4.315835   2.166261   2.491913   1.091529   0.000000
    31  C    3.873820   2.411192   3.399582   1.394011   2.152449
    32  Br   5.759920   4.141603   4.986308   2.832615   2.922476
    33  O    5.671241   4.925891   5.382960   4.689008   4.995029
    34  H    4.045519   3.389838   4.272167   3.062535   3.803971
    35  H    4.795377   4.013583   4.432662   3.901667   4.255721
                   31         32         33         34         35
    31  C    0.000000
    32  Br   1.886306   0.000000
    33  O    4.620479   5.195416   0.000000
    34  H    2.477733   3.480294   2.605943   0.000000
    35  H    4.010594   4.857655   0.964089   2.201731   0.000000
 Stoichiometry    C19H13BrO2
 Framework group  C1[X(C19H13BrO2)]
 Deg. of freedom    99
 Full point group                 C1      NOp   1
 RotChk:  IX=1 Diff= 1.17D-02
 Largest Abelian subgroup         C1      NOp   1
 Largest concise Abelian subgroup C1      NOp   1
                         Standard orientation:                         
 ---------------------------------------------------------------------
 Center     Atomic      Atomic             Coordinates (Angstroms)
 Number     Number       Type             X           Y           Z
 ---------------------------------------------------------------------
      1          8           0       -2.110114    3.006345    0.530782
      2          6           0       -0.734222   -2.976257    0.394732
      3          6           0       -2.035245   -3.388626    0.026130
      4          1           0       -2.240874   -4.454256   -0.087259
      5          6           0       -2.999599   -2.432950   -0.159293
      6          1           0       -4.017506   -2.731134   -0.424593
      7          6           0       -2.724706   -1.049024   -0.009242
      8          6           0       -3.757587   -0.095032   -0.158011
      9          1           0       -4.764317   -0.439506   -0.408402
     10          6           0       -3.510369    1.239195    0.025597
     11          1           0       -4.291508    1.996125   -0.058532
     12          6           0       -2.203160    1.676866    0.324655
     13          6           0       -0.863302    3.665372    0.539764
     14          1           0       -0.722560    4.192939   -0.428396
     15          1           0       -0.925103    4.451017    1.312597
     16          6           0        0.286179    2.756423    0.781204
     17          1           0        1.263074    3.224904    0.929784
     18          6           0        0.189597    1.416890    0.700222
     19          6           0       -1.125537    0.792345    0.436881
     20          6           0       -1.396030   -0.617543    0.323004
     21          6           0       -0.433279   -1.636703    0.542144
     22          6           0        1.472761    0.666638    0.787128
     23          6           0        2.105159    0.484658    2.023266
     24          1           0        1.619872    0.886611    2.915666
     25          6           0        3.306151   -0.213643    2.128583
     26          1           0        3.774270   -0.347503    3.106435
     27          6           0        3.902238   -0.742467    0.985076
     28          1           0        4.842689   -1.294271    1.055276
     29          6           0        3.305107   -0.556651   -0.260920
     30          1           0        3.768440   -0.951526   -1.166918
     31          6           0        2.104496    0.145574   -0.354086
     32         35           0        1.319748    0.374254   -2.054094
     33          8           0        0.180931   -3.946446    0.596755
     34          1           0        0.576107   -1.383725    0.856053
     35          1           0        1.027782   -3.538142    0.810295
 ---------------------------------------------------------------------
 Rotational constants (GHZ):      0.2904357      0.2398450      0.1796149
 Leave Link  202 at Thu Jul 21 15:08:04 2022, MaxMem=   268435456 cpu:         0.8
 (Enter /share/programs/GAUSSIAN/64/g09/l301.exe)
 Standard basis: def2SVP (5D, 7F)
 Ernie: Thresh=  0.10000D-02 Tol=  0.10000D-05 Strict=F.
 There are   415 symmetry adapted cartesian basis functions of A   symmetry.
 There are   391 symmetry adapted basis functions of A   symmetry.
   391 basis functions,   696 primitive gaussians,   415 cartesian basis functions
    89 alpha electrons       89 beta electrons
       nuclear repulsion energy      2188.7481822010 Hartrees.
 IExCor= 1009 DFT=T Ex+Corr=PBE1PBE ExCW=0 ScaHFX=  0.250000
 ScaDFX=  0.750000  0.750000  1.000000  1.000000 ScalE2=  1.000000  1.000000
 IRadAn=      0 IRanWt=     -1 IRanGd=            0 ICorTp=0 IEmpDi=131
 NAtoms=   35 NActive=   35 NUniq=   35 SFac= 1.00D+00 NAtFMM=   60 NAOKFM=F Big=F
 Integral buffers will be    131072 words long.
 Raffenetti 2 integral format.
 Two-electron integral symmetry is turned on.
 R6Disp:  Grimme-D3 Dispersion energy=       -0.0256995603 Hartrees.
 Nuclear repulsion after empirical dispersion term =     2188.7224826407 Hartrees.
 Leave Link  301 at Thu Jul 21 15:08:04 2022, MaxMem=   268435456 cpu:         0.8
 (Enter /share/programs/GAUSSIAN/64/g09/l302.exe)
 NPDir=0 NMtPBC=     1 NCelOv=     1 NCel=       1 NClECP=     1 NCelD=      1
         NCelK=      1 NCelE2=     1 NClLst=     1 CellRange=     0.0.
 One-electron integrals computed using PRISM.
   1 Symmetry operations used in ECPInt.
 ECPInt:  NShTT=   15753 NPrTT=   60730 LenC2=   14640 LenP2D=   38823.
 LDataN:  DoStor=T MaxTD1= 4 Len=   56
 NBasis=   391 RedAO= T EigKep=  2.08D-04  NBF=   391
 NBsUse=   391 1.00D-06 EigRej= -1.00D+00 NBFU=   391
 Precomputing XC quadrature grid using
 IXCGrd= 4 IRadAn=           0 IRanWt=          -1 IRanGd=           0 AccXCQ= 0.00D+00.
 Generated NRdTot=       0 NPtTot=           0 NUsed=           0 NTot=          32
 NSgBfM=   412   412   412   412   413 MxSgAt=    35 MxSgA2=    35.
 Leave Link  302 at Thu Jul 21 15:08:04 2022, MaxMem=   268435456 cpu:         8.5
 (Enter /share/programs/GAUSSIAN/64/g09/l303.exe)
 DipDrv:  MaxL=1.
 Leave Link  303 at Thu Jul 21 15:08:05 2022, MaxMem=   268435456 cpu:         1.4
 (Enter /share/programs/GAUSSIAN/64/g09/l401.exe)
 Initial guess from the checkpoint file:  "/scratch/humbel.106223/Gau-86356.chk"
 B after Tr=     0.000000    0.000000    0.000000
         Rot=    0.999995   -0.002827   -0.001112    0.001077 Ang=  -0.37 deg.
 Guess basis will be translated and rotated to current coordinates.
 JPrj=2 DoOrth=T DoCkMO=T.
 Generating alternative initial guess.
 ExpMin= 1.22D-01 ExpMax= 1.13D+05 ExpMxC= 1.70D+04 IAcc=2 IRadAn=         4 AccDes= 0.00D+00
 Harris functional with IExCor= 1009 and IRadAn=       4 diagonalized for initial guess.
 HarFok:  IExCor= 1009 AccDes= 0.00D+00 IRadAn=         4 IDoV= 1 UseB2=F ITyADJ=14
 ICtDFT=  3500011 ScaDFX=  1.000000  1.000000  1.000000  1.000000
 FoFCou: FMM=F IPFlag=           0 FMFlag=      100000 FMFlg1=           0
         NFxFlg=           0 DoJE=T BraDBF=F KetDBF=T FulRan=T
         wScrn=  0.000000 ICntrl=     500 IOpCl=  0 I1Cent=   200000004 NGrid=           0
         NMat0=    1 NMatS0=      1 NMatT0=    0 NMatD0=    1 NMtDS0=    0 NMtDT0=    0
 Petite list used in FoFCou.
 Harris En= -3454.29959154266    
 Leave Link  401 at Thu Jul 21 15:08:07 2022, MaxMem=   268435456 cpu:        30.6
 (Enter /share/programs/GAUSSIAN/64/g09/l502.exe)
 Closed shell SCF:
 Using DIIS extrapolation, IDIIS=  1040.
 Integral symmetry usage will be decided dynamically.
 IVT=      543333 IEndB=      543333 NGot=   268435456 MDV=   268081404
 LenX=   268081404 LenY=   267908738
 Requested convergence on RMS density matrix=1.00D-08 within 128 cycles.
 Requested convergence on MAX density matrix=1.00D-06.
 Requested convergence on             energy=1.00D-06.
 No special actions if energy rises.
 Fock matrices will be formed incrementally for  20 cycles.
 Integral accuracy reduced to 1.0D-05 until final iterations.

 Cycle   1  Pass 0  IDiag  1:
 FoFJK:  IHMeth= 1 ICntrl=       0 DoSepK=F KAlg= 0 I1Cent=   0 FoldK=F
 IRaf= 850000000 NMat=   1 IRICut=       1 DoRegI=T DoRafI=F ISym2E= 0.
 FoFCou: FMM=F IPFlag=           0 FMFlag=      100000 FMFlg1=           0
         NFxFlg=           0 DoJE=F BraDBF=F KetDBF=F FulRan=T
         wScrn=  0.000000 ICntrl=       0 IOpCl=  0 I1Cent=           0 NGrid=           0
         NMat0=    1 NMatS0=      1 NMatT0=    0 NMatD0=    1 NMtDS0=    0 NMtDT0=    0
 Symmetry not used in FoFCou.
 E= -3454.21399869102    
 DIIS: error= 1.42D-03 at cycle   1 NSaved=   1.
 NSaved= 1 IEnMin= 1 EnMin= -3454.21399869102     IErMin= 1 ErrMin= 1.42D-03
 ErrMax= 1.42D-03  0.00D+00 EMaxC= 1.00D-01 BMatC= 1.19D-03 BMatP= 1.19D-03
 IDIUse=3 WtCom= 9.86D-01 WtEn= 1.42D-02
 Coeff-Com:  0.100D+01
 Coeff-En:   0.100D+01
 Coeff:      0.100D+01
 Gap=     0.563 Goal=   None    Shift=    0.000
 GapD=    0.563 DampG=2.000 DampE=1.000 DampFc=2.0000 IDamp=-1.
 RMSDP=2.06D-04 MaxDP=7.56D-03              OVMax= 1.17D-02

 Cycle   2  Pass 0  IDiag  1:
 RMSU=  2.06D-04    CP:  1.00D+00
 E= -3454.21586213789     Delta-E=       -0.001863446879 Rises=F Damp=F
 DIIS: error= 1.76D-04 at cycle   2 NSaved=   2.
 NSaved= 2 IEnMin= 2 EnMin= -3454.21586213789     IErMin= 2 ErrMin= 1.76D-04
 ErrMax= 1.76D-04  0.00D+00 EMaxC= 1.00D-01 BMatC= 1.51D-05 BMatP= 1.19D-03
 IDIUse=3 WtCom= 9.98D-01 WtEn= 1.76D-03
 Coeff-Com: -0.811D-01 0.108D+01
 Coeff-En:   0.000D+00 0.100D+01
 Coeff:     -0.810D-01 0.108D+01
 Gap=     0.156 Goal=   None    Shift=    0.000
 RMSDP=3.18D-05 MaxDP=8.73D-04 DE=-1.86D-03 OVMax= 1.79D-03

 Cycle   3  Pass 0  IDiag  1:
 RMSU=  2.94D-05    CP:  1.00D+00  1.06D+00
 E= -3454.21588526161     Delta-E=       -0.000023123720 Rises=F Damp=F
 DIIS: error= 1.21D-04 at cycle   3 NSaved=   3.
 NSaved= 3 IEnMin= 3 EnMin= -3454.21588526161     IErMin= 3 ErrMin= 1.21D-04
 ErrMax= 1.21D-04  0.00D+00 EMaxC= 1.00D-01 BMatC= 9.45D-06 BMatP= 1.51D-05
 IDIUse=3 WtCom= 9.99D-01 WtEn= 1.21D-03
 Coeff-Com: -0.463D-01 0.562D+00 0.485D+00
 Coeff-En:   0.000D+00 0.000D+00 0.100D+01
 Coeff:     -0.462D-01 0.561D+00 0.485D+00
 Gap=     0.156 Goal=   None    Shift=    0.000
 RMSDP=1.61D-05 MaxDP=5.47D-04 DE=-2.31D-05 OVMax= 1.55D-03

 Cycle   4  Pass 0  IDiag  1:
 RMSU=  1.15D-05    CP:  1.00D+00  1.06D+00  6.17D-01
 E= -3454.21589415355     Delta-E=       -0.000008891939 Rises=F Damp=F
 DIIS: error= 4.68D-05 at cycle   4 NSaved=   4.
 NSaved= 4 IEnMin= 4 EnMin= -3454.21589415355     IErMin= 4 ErrMin= 4.68D-05
 ErrMax= 4.68D-05  0.00D+00 EMaxC= 1.00D-01 BMatC= 1.60D-06 BMatP= 9.45D-06
 IDIUse=1 WtCom= 1.00D+00 WtEn= 0.00D+00
 Coeff-Com: -0.671D-02 0.631D-01 0.290D+00 0.653D+00
 Coeff:     -0.671D-02 0.631D-01 0.290D+00 0.653D+00
 Gap=     0.156 Goal=   None    Shift=    0.000
 RMSDP=5.18D-06 MaxDP=1.66D-04 DE=-8.89D-06 OVMax= 4.92D-04

 Initial convergence to 1.0D-05 achieved.  Increase integral accuracy.
 Cycle   5  Pass 1  IDiag  1:
 E= -3454.21601652609     Delta-E=       -0.000122372536 Rises=F Damp=F
 DIIS: error= 9.93D-05 at cycle   1 NSaved=   1.
 NSaved= 1 IEnMin= 1 EnMin= -3454.21601652609     IErMin= 1 ErrMin= 9.93D-05
 ErrMax= 9.93D-05  0.00D+00 EMaxC= 1.00D-01 BMatC= 3.37D-06 BMatP= 3.37D-06
 IDIUse=1 WtCom= 1.00D+00 WtEn= 0.00D+00
 Coeff-Com:  0.100D+01
 Coeff:      0.100D+01
 Gap=     0.156 Goal=   None    Shift=    0.000
 RMSDP=5.18D-06 MaxDP=1.66D-04 DE=-1.22D-04 OVMax= 3.11D-04

 Cycle   6  Pass 1  IDiag  1:
 RMSU=  1.19D-04    CP:  1.00D+00
 E= -3454.21601910074     Delta-E=       -0.000002574654 Rises=F Damp=F
 DIIS: error= 2.25D-05 at cycle   2 NSaved=   2.
 NSaved= 2 IEnMin= 2 EnMin= -3454.21601910074     IErMin= 2 ErrMin= 2.25D-05
 ErrMax= 2.25D-05  0.00D+00 EMaxC= 1.00D-01 BMatC= 5.14D-07 BMatP= 3.37D-06
 IDIUse=1 WtCom= 1.00D+00 WtEn= 0.00D+00
 Coeff-Com:  0.169D+00 0.831D+00
 Coeff:      0.169D+00 0.831D+00
 Gap=     0.156 Goal=   None    Shift=    0.000
 RMSDP=7.10D-06 MaxDP=2.42D-04 DE=-2.57D-06 OVMax= 5.82D-04

 Cycle   7  Pass 1  IDiag  1:
 RMSU=  6.98D-06    CP:  1.00D+00  1.01D+00
 E= -3454.21601813250     Delta-E=        0.000000968246 Rises=F Damp=F
 DIIS: error= 3.95D-05 at cycle   3 NSaved=   3.
 NSaved= 3 IEnMin= 2 EnMin= -3454.21601910074     IErMin= 2 ErrMin= 2.25D-05
 ErrMax= 3.95D-05  0.00D+00 EMaxC= 1.00D-01 BMatC= 1.40D-06 BMatP= 5.14D-07
 IDIUse=1 WtCom= 1.00D+00 WtEn= 0.00D+00
 Coeff-Com: -0.131D-02 0.624D+00 0.377D+00
 Coeff:     -0.131D-02 0.624D+00 0.377D+00
 Gap=     0.156 Goal=   None    Shift=    0.000
 RMSDP=4.41D-06 MaxDP=1.62D-04 DE= 9.68D-07 OVMax= 3.91D-04

 Cycle   8  Pass 1  IDiag  1:
 RMSU=  1.26D-06    CP:  1.00D+00  1.02D+00  4.00D-01
 E= -3454.21601963879     Delta-E=       -0.000001506298 Rises=F Damp=F
 DIIS: error= 3.35D-06 at cycle   4 NSaved=   4.
 NSaved= 4 IEnMin= 4 EnMin= -3454.21601963879     IErMin= 4 ErrMin= 3.35D-06
 ErrMax= 3.35D-06  0.00D+00 EMaxC= 1.00D-01 BMatC= 1.26D-08 BMatP= 5.14D-07
 IDIUse=1 WtCom= 1.00D+00 WtEn= 0.00D+00
 Coeff-Com: -0.451D-02 0.326D+00 0.209D+00 0.470D+00
 Coeff:     -0.451D-02 0.326D+00 0.209D+00 0.470D+00
 Gap=     0.156 Goal=   None    Shift=    0.000
 RMSDP=5.31D-07 MaxDP=2.25D-05 DE=-1.51D-06 OVMax= 2.91D-05

 Cycle   9  Pass 1  IDiag  1:
 RMSU=  3.07D-07    CP:  1.00D+00  1.02D+00  4.06D-01  6.59D-01
 E= -3454.21601965100     Delta-E=       -0.000000012204 Rises=F Damp=F
 DIIS: error= 6.33D-07 at cycle   5 NSaved=   5.
 NSaved= 5 IEnMin= 5 EnMin= -3454.21601965100     IErMin= 5 ErrMin= 6.33D-07
 ErrMax= 6.33D-07  0.00D+00 EMaxC= 1.00D-01 BMatC= 4.51D-10 BMatP= 1.26D-08
 IDIUse=1 WtCom= 1.00D+00 WtEn= 0.00D+00
 Coeff-Com: -0.245D-02 0.158D+00 0.101D+00 0.255D+00 0.488D+00
 Coeff:     -0.245D-02 0.158D+00 0.101D+00 0.255D+00 0.488D+00
 Gap=     0.156 Goal=   None    Shift=    0.000
 RMSDP=9.46D-08 MaxDP=3.31D-06 DE=-1.22D-08 OVMax= 5.18D-06

 Cycle  10  Pass 1  IDiag  1:
 RMSU=  8.92D-08    CP:  1.00D+00  1.02D+00  4.03D-01  6.49D-01  9.26D-01
 E= -3454.21601965135     Delta-E=       -0.000000000355 Rises=F Damp=F
 DIIS: error= 1.40D-07 at cycle   6 NSaved=   6.
 NSaved= 6 IEnMin= 6 EnMin= -3454.21601965135     IErMin= 6 ErrMin= 1.40D-07
 ErrMax= 1.40D-07  0.00D+00 EMaxC= 1.00D-01 BMatC= 2.77D-11 BMatP= 4.51D-10
 IDIUse=1 WtCom= 1.00D+00 WtEn= 0.00D+00
 Coeff-Com: -0.405D-03 0.207D-01 0.131D-01 0.394D-01 0.208D+00 0.719D+00
 Coeff:     -0.405D-03 0.207D-01 0.131D-01 0.394D-01 0.208D+00 0.719D+00
 Gap=     0.156 Goal=   None    Shift=    0.000
 RMSDP=3.06D-08 MaxDP=9.85D-07 DE=-3.55D-10 OVMax= 2.28D-06

 Cycle  11  Pass 1  IDiag  1:
 RMSU=  2.20D-08    CP:  1.00D+00  1.02D+00  4.04D-01  6.58D-01  9.68D-01
                    CP:  8.86D-01
 E= -3454.21601965142     Delta-E=       -0.000000000069 Rises=F Damp=F
 DIIS: error= 9.18D-08 at cycle   7 NSaved=   7.
 NSaved= 7 IEnMin= 7 EnMin= -3454.21601965142     IErMin= 7 ErrMin= 9.18D-08
 ErrMax= 9.18D-08  0.00D+00 EMaxC= 1.00D-01 BMatC= 8.05D-12 BMatP= 2.77D-11
 IDIUse=1 WtCom= 1.00D+00 WtEn= 0.00D+00
 Coeff-Com:  0.253D-04-0.491D-02-0.335D-02-0.417D-02 0.719D-01 0.427D+00
 Coeff-Com:  0.513D+00
 Coeff:      0.253D-04-0.491D-02-0.335D-02-0.417D-02 0.719D-01 0.427D+00
 Coeff:      0.513D+00
 Gap=     0.156 Goal=   None    Shift=    0.000
 RMSDP=1.14D-08 MaxDP=3.78D-07 DE=-6.91D-11 OVMax= 1.08D-06

 Cycle  12  Pass 1  IDiag  1:
 RMSU=  6.86D-09    CP:  1.00D+00  1.02D+00  4.04D-01  6.59D-01  9.74D-01
                    CP:  9.35D-01  6.54D-01
 E= -3454.21601965142     Delta-E=       -0.000000000002 Rises=F Damp=F
 DIIS: error= 2.80D-08 at cycle   8 NSaved=   8.
 NSaved= 8 IEnMin= 8 EnMin= -3454.21601965142     IErMin= 8 ErrMin= 2.80D-08
 ErrMax= 2.80D-08  0.00D+00 EMaxC= 1.00D-01 BMatC= 4.33D-13 BMatP= 8.05D-12
 IDIUse=1 WtCom= 1.00D+00 WtEn= 0.00D+00
 Coeff-Com:  0.450D-04-0.412D-02-0.275D-02-0.506D-02 0.222D-01 0.156D+00
 Coeff-Com:  0.254D+00 0.580D+00
 Coeff:      0.450D-04-0.412D-02-0.275D-02-0.506D-02 0.222D-01 0.156D+00
 Coeff:      0.254D+00 0.580D+00
 Gap=     0.156 Goal=   None    Shift=    0.000
 RMSDP=2.91D-09 MaxDP=1.26D-07 DE=-1.82D-12 OVMax= 2.03D-07

 SCF Done:  E(RPBE1PBE) =  -3454.21601965     A.U. after   12 cycles
            NFock= 12  Conv=0.29D-08     -V/T= 2.0032
 KE= 3.443110800265D+03 PE=-1.257556538412D+04 EE= 3.489516081567D+03
 Leave Link  502 at Thu Jul 21 15:09:32 2022, MaxMem=   268435456 cpu:      1017.8
 (Enter /share/programs/GAUSSIAN/64/g09/l701.exe)
 Compute integral first derivatives.
 ... and contract with generalized density number  0.
 R6Disp: Adding Grimme-D3 dispersion energy 1st derivatives to the gradient.
   1 Symmetry operations used in ECPInt.
 ECPInt:  NShTT=   15753 NPrTT=   60730 LenC2=   14640 LenP2D=   38823.
 LDataN:  DoStor=T MaxTD1= 5 Len=  102
 Leave Link  701 at Thu Jul 21 15:09:33 2022, MaxMem=   268435456 cpu:         5.7
 (Enter /share/programs/GAUSSIAN/64/g09/l702.exe)
 L702 exits ... SP integral derivatives will be done elsewhere.
 Leave Link  702 at Thu Jul 21 15:09:34 2022, MaxMem=   268435456 cpu:         0.2
