 Entering Gaussian System, Link 0=g09
 Initial command:
 /share/programs/GAUSSIAN/64/g09/l1.exe "/scratch/humbel.245603/Gau-62596.inp" -scrdir="/scratch/humbel.245603/"
 Entering Link 1 = /share/programs/GAUSSIAN/64/g09/l1.exe PID=     62599.
  
 Copyright (c) 1988,1990,1992,1993,1995,1998,2003,2009,2013,
            Gaussian, Inc.  All Rights Reserved.
  
 This is part of the Gaussian(R) 09 program.  It is based on
 the Gaussian(R) 03 system (copyright 2003, Gaussian, Inc.),
 the Gaussian(R) 98 system (copyright 1998, Gaussian, Inc.),
 the Gaussian(R) 94 system (copyright 1995, Gaussian, Inc.),
 the Gaussian 92(TM) system (copyright 1992, Gaussian, Inc.),
 the Gaussian 90(TM) system (copyright 1990, Gaussian, Inc.),
 the Gaussian 88(TM) system (copyright 1988, Gaussian, Inc.),
 the Gaussian 86(TM) system (copyright 1986, Carnegie Mellon
 University), and the Gaussian 82(TM) system (copyright 1983,
 Carnegie Mellon University). Gaussian is a federally registered
 trademark of Gaussian, Inc.
  
 This software contains proprietary and confidential information,
 including trade secrets, belonging to Gaussian, Inc.
  
 This software is provided under written license and may be
 used, copied, transmitted, or stored only in accord with that
 written license.
  
 The following legend is applicable only to US Government
 contracts under FAR:
  
                    RESTRICTED RIGHTS LEGEND
  
 Use, reproduction and disclosure by the US Government is
 subject to restrictions as set forth in subparagraphs (a)
 and (c) of the Commercial Computer Software - Restricted
 Rights clause in FAR 52.227-19.
  
 Gaussian, Inc.
 340 Quinnipiac St., Bldg. 40, Wallingford CT 06492
  
  
 ---------------------------------------------------------------
 Warning -- This program may not be used in any manner that
 competes with the business of Gaussian, Inc. or will provide
 assistance to any competitor of Gaussian, Inc.  The licensee
 of this program is prohibited from giving any competitor of
 Gaussian, Inc. access to this program.  By using this program,
 the user acknowledges that Gaussian, Inc. is engaged in the
 business of creating and licensing software in the field of
 computational chemistry and represents and warrants to the
 licensee that it is not a competitor of Gaussian, Inc. and that
 it will not use this program in any manner prohibited above.
 ---------------------------------------------------------------
  

 Cite this work as:
 Gaussian 09, Revision D.01,
 M. J. Frisch, G. W. Trucks, H. B. Schlegel, G. E. Scuseria, 
 M. A. Robb, J. R. Cheeseman, G. Scalmani, V. Barone, B. Mennucci, 
 G. A. Petersson, H. Nakatsuji, M. Caricato, X. Li, H. P. Hratchian, 
 A. F. Izmaylov, J. Bloino, G. Zheng, J. L. Sonnenberg, M. Hada, 
 M. Ehara, K. Toyota, R. Fukuda, J. Hasegawa, M. Ishida, T. Nakajima, 
 Y. Honda, O. Kitao, H. Nakai, T. Vreven, J. A. Montgomery, Jr., 
 J. E. Peralta, F. Ogliaro, M. Bearpark, J. J. Heyd, E. Brothers, 
 K. N. Kudin, V. N. Staroverov, T. Keith, R. Kobayashi, J. Normand, 
 K. Raghavachari, A. Rendell, J. C. Burant, S. S. Iyengar, J. Tomasi, 
 M. Cossi, N. Rega, J. M. Millam, M. Klene, J. E. Knox, J. B. Cross, 
 V. Bakken, C. Adamo, J. Jaramillo, R. Gomperts, R. E. Stratmann, 
 O. Yazyev, A. J. Austin, R. Cammi, C. Pomelli, J. W. Ochterski, 
 R. L. Martin, K. Morokuma, V. G. Zakrzewski, G. A. Voth, 
 P. Salvador, J. J. Dannenberg, S. Dapprich, A. D. Daniels, 
 O. Farkas, J. B. Foresman, J. V. Ortiz, J. Cioslowski, 
 and D. J. Fox, Gaussian, Inc., Wallingford CT, 2013.
 
 ******************************************
 Gaussian 09:  ES64L-G09RevD.01 24-Apr-2013
                21-Dec-2023 
 ******************************************
 %mem=30GB
 %nprocshared=12
 Will use up to   12 processors via shared memory.
 ----------------------------------------------------------------------
 #p opt freq nosymm def2svp empiricaldispersion=gd3 optcyc=500 pbe1pbe 
 scfcyc=500
 ----------------------------------------------------------------------
 1/6=500,14=-1,18=20,19=15,26=3,38=1/1,3;
 2/9=110,12=2,15=1,17=6,18=5,40=1/2;
 3/5=43,7=101,11=2,16=1,25=1,30=1,71=1,74=-13,124=31/1,2,3;
 4//1;
 5/5=2,7=500,38=5/2;
 6/7=2,8=2,9=2,10=2,28=1/1;
 7/30=1/1,2,3,16;
 1/6=500,14=-1,18=20,19=15,26=3/3(2);
 2/9=110,15=1/2;
 99//99;
 2/9=110,15=1/2;
 3/5=43,7=101,11=2,16=1,25=1,30=1,71=1,74=-13,124=31/1,2,3;
 4/5=5,16=3,69=1/1;
 5/5=2,7=500,38=5/2;
 7/30=1/1,2,3,16;
 1/6=500,14=-1,18=20,19=15,26=3/3(-5);
 2/9=110,15=1/2;
 6/7=2,8=2,9=2,10=2,19=2,28=1/1;
 99/9=1/99;
 Leave Link    1 at Thu Dec 21 16:56:52 2023, MaxMem=  4026531840 cpu:         0.8
 (Enter /share/programs/GAUSSIAN/64/g09/l101.exe)
 -----------------------------------------
 new helicene - ts frozen conformation 1-2
 -----------------------------------------
 Symbolic Z-matrix:
 Charge =  0 Multiplicity = 1
 C                     0.2967   -0.76649  -1.4769 
 C                     0.87179  -0.42438  -0.17665 
 C                     2.17969   0.25374  -0.24593 
 C                     2.79753   0.40991  -1.49773 
 C                     0.93054  -0.42369  -2.76121 
 H                     2.36431   0.81046   1.83387 
 C                     2.83578   0.8392    0.85463 
 C                     4.0448    1.02147  -1.63747 
 C                     4.68971   1.53575  -0.52349 
 C                     4.06851   1.46162   0.72598 
 H                     4.46875   1.09331  -2.64035 
 H                     5.66494   2.01578  -0.63184 
 H                     4.54514   1.89659   1.60682 
 O                     2.2151    0.02323  -2.66253 
 O                     0.45416  -0.53432  -3.851 
 N                    -0.82249  -1.50857  -1.56834 
 O                    -1.36964  -1.95961  -0.39569 
 O                    -1.39221  -1.90301  -2.55128 
 C                     0.15227  -0.67813   0.95656 
 C                     0.60038  -0.63221   2.36061 
 C                    -0.1102    0.11089   3.31597 
 C                     1.68578  -1.41519   2.78804 
 C                     0.27493   0.09692   4.65563 
 H                    -0.96534   0.7111    2.99614 
 C                     2.06601  -1.42921   4.12569 
 H                     2.23111  -2.01174   2.05276 
 C                     1.3649   -0.66943   5.06428 
 H                    -0.28194   0.69034   5.38492 
 H                     2.91281  -2.04379   4.44072 
 H                     1.66497  -0.68167   6.1148 
 C                    -1.29088  -1.05471   0.78037 
 H                    -1.61955  -1.75974   1.55651 
 N                    -2.16831   0.0193    0.73198 
 C                    -3.54799  -0.07679   1.20598 
 C                    -1.86243   1.31216   0.12578 
 C                    -3.97519   1.3892    1.26392 
 C                    -3.21208   2.02485   0.1033 
 H                    -1.12087   1.86456   0.73263 
 H                    -3.65577   1.83261   2.22085 
 H                    -3.11169   3.1159    0.19057 
 H                    -1.44063   1.21259  -0.88661 
 H                    -3.72989   1.81919  -0.84655 
 H                    -5.06532   1.51628   1.1888 
 H                    -3.55521  -0.54747   2.20581 
 C                    -4.4445   -0.93332   0.3063 
 H                    -5.46986  -0.89097   0.71195 
 H                    -4.48055  -0.48771  -0.70833 
 O                    -4.06335  -2.27478   0.28056 
 H                    -3.29167  -2.3656   -0.29544 
 
 NAtoms=     49 NQM=       49 NQMF=       0 NMMI=      0 NMMIF=      0
                NMic=       0 NMicF=      0.
                    Isotopes and Nuclear Properties:
 (Nuclear quadrupole moments (NQMom) in fm**2, nuclear magnetic moments (NMagM)
  in nuclear magnetons)

  Atom         1           2           3           4           5           6           7           8           9          10
 IAtWgt=          12          12          12          12          12           1          12          12          12          12
 AtmWgt=  12.0000000  12.0000000  12.0000000  12.0000000  12.0000000   1.0078250  12.0000000  12.0000000  12.0000000  12.0000000
 NucSpn=           0           0           0           0           0           1           0           0           0           0
 AtZEff=   0.0000000   0.0000000   0.0000000   0.0000000   0.0000000   0.0000000   0.0000000   0.0000000   0.0000000   0.0000000
 NQMom=    0.0000000   0.0000000   0.0000000   0.0000000   0.0000000   0.0000000   0.0000000   0.0000000   0.0000000   0.0000000
 NMagM=    0.0000000   0.0000000   0.0000000   0.0000000   0.0000000   2.7928460   0.0000000   0.0000000   0.0000000   0.0000000
 AtZNuc=   6.0000000   6.0000000   6.0000000   6.0000000   6.0000000   1.0000000   6.0000000   6.0000000   6.0000000   6.0000000

  Atom        11          12          13          14          15          16          17          18          19          20
 IAtWgt=           1           1           1          16          16          14          16          16          12          12
 AtmWgt=   1.0078250   1.0078250   1.0078250  15.9949146  15.9949146  14.0030740  15.9949146  15.9949146  12.0000000  12.0000000
 NucSpn=           1           1           1           0           0           2           0           0           0           0
 AtZEff=   0.0000000   0.0000000   0.0000000   0.0000000   0.0000000   0.0000000   0.0000000   0.0000000   0.0000000   0.0000000
 NQMom=    0.0000000   0.0000000   0.0000000   0.0000000   0.0000000   2.0440000   0.0000000   0.0000000   0.0000000   0.0000000
 NMagM=    2.7928460   2.7928460   2.7928460   0.0000000   0.0000000   0.4037610   0.0000000   0.0000000   0.0000000   0.0000000
 AtZNuc=   1.0000000   1.0000000   1.0000000   8.0000000   8.0000000   7.0000000   8.0000000   8.0000000   6.0000000   6.0000000

  Atom        21          22          23          24          25          26          27          28          29          30
 IAtWgt=          12          12          12           1          12           1          12           1           1           1
 AtmWgt=  12.0000000  12.0000000  12.0000000   1.0078250  12.0000000   1.0078250  12.0000000   1.0078250   1.0078250   1.0078250
 NucSpn=           0           0           0           1           0           1           0           1           1           1
 AtZEff=   0.0000000   0.0000000   0.0000000   0.0000000   0.0000000   0.0000000   0.0000000   0.0000000   0.0000000   0.0000000
 NQMom=    0.0000000   0.0000000   0.0000000   0.0000000   0.0000000   0.0000000   0.0000000   0.0000000   0.0000000   0.0000000
 NMagM=    0.0000000   0.0000000   0.0000000   2.7928460   0.0000000   2.7928460   0.0000000   2.7928460   2.7928460   2.7928460
 AtZNuc=   6.0000000   6.0000000   6.0000000   1.0000000   6.0000000   1.0000000   6.0000000   1.0000000   1.0000000   1.0000000

  Atom        31          32          33          34          35          36          37          38          39          40
 IAtWgt=          12           1          14          12          12          12          12           1           1           1
 AtmWgt=  12.0000000   1.0078250  14.0030740  12.0000000  12.0000000  12.0000000  12.0000000   1.0078250   1.0078250   1.0078250
 NucSpn=           0           1           2           0           0           0           0           1           1           1
 AtZEff=   0.0000000   0.0000000   0.0000000   0.0000000   0.0000000   0.0000000   0.0000000   0.0000000   0.0000000   0.0000000
 NQMom=    0.0000000   0.0000000   2.0440000   0.0000000   0.0000000   0.0000000   0.0000000   0.0000000   0.0000000   0.0000000
 NMagM=    0.0000000   2.7928460   0.4037610   0.0000000   0.0000000   0.0000000   0.0000000   2.7928460   2.7928460   2.7928460
 AtZNuc=   6.0000000   1.0000000   7.0000000   6.0000000   6.0000000   6.0000000   6.0000000   1.0000000   1.0000000   1.0000000

  Atom        41          42          43          44          45          46          47          48          49
 IAtWgt=           1           1           1           1          12           1           1          16           1
 AtmWgt=   1.0078250   1.0078250   1.0078250   1.0078250  12.0000000   1.0078250   1.0078250  15.9949146   1.0078250
 NucSpn=           1           1           1           1           0           1           1           0           1
 AtZEff=   0.0000000   0.0000000   0.0000000   0.0000000   0.0000000   0.0000000   0.0000000   0.0000000   0.0000000
 NQMom=    0.0000000   0.0000000   0.0000000   0.0000000   0.0000000   0.0000000   0.0000000   0.0000000   0.0000000
 NMagM=    2.7928460   2.7928460   2.7928460   2.7928460   0.0000000   2.7928460   2.7928460   0.0000000   2.7928460
 AtZNuc=   1.0000000   1.0000000   1.0000000   1.0000000   6.0000000   1.0000000   1.0000000   8.0000000   1.0000000
 Leave Link  101 at Thu Dec 21 16:56:52 2023, MaxMem=  4026531840 cpu:         5.6
 (Enter /share/programs/GAUSSIAN/64/g09/l103.exe)

 GradGradGradGradGradGradGradGradGradGradGradGradGradGradGradGradGradGrad
 Berny optimization.
 Initialization pass.
                           ----------------------------
                           !    Initial Parameters    !
                           ! (Angstroms and Degrees)  !
 --------------------------                            --------------------------
 ! Name  Definition              Value          Derivative Info.                !
 --------------------------------------------------------------------------------
 ! R1    R(1,2)                  1.4623         estimate D2E/DX2                !
 ! R2    R(1,5)                  1.4727         estimate D2E/DX2                !
 ! R3    R(1,16)                 1.346          estimate D2E/DX2                !
 ! R4    R(2,3)                  1.4749         estimate D2E/DX2                !
 ! R5    R(2,19)                 1.3661         estimate D2E/DX2                !
 ! R6    R(3,4)                  1.4047         estimate D2E/DX2                !
 ! R7    R(3,7)                  1.4087         estimate D2E/DX2                !
 ! R8    R(4,8)                  1.3961         estimate D2E/DX2                !
 ! R9    R(4,14)                 1.3585         estimate D2E/DX2                !
 ! R10   R(5,14)                 1.3637         estimate D2E/DX2                !
 ! R11   R(5,15)                 1.1945         estimate D2E/DX2                !
 ! R12   R(6,7)                  1.0872         estimate D2E/DX2                !
 ! R13   R(7,10)                 1.3869         estimate D2E/DX2                !
 ! R14   R(8,9)                  1.3861         estimate D2E/DX2                !
 ! R15   R(8,11)                 1.0912         estimate D2E/DX2                !
 ! R16   R(9,10)                 1.3973         estimate D2E/DX2                !
 ! R17   R(9,12)                 1.0924         estimate D2E/DX2                !
 ! R18   R(10,13)                1.0919         estimate D2E/DX2                !
 ! R19   R(16,17)                1.3704         estimate D2E/DX2                !
 ! R20   R(16,18)                1.2026         estimate D2E/DX2                !
 ! R21   R(17,31)                1.486          estimate D2E/DX2                !
 ! R22   R(19,20)                1.4745         estimate D2E/DX2                !
 ! R23   R(19,31)                1.5018         estimate D2E/DX2                !
 ! R24   R(20,21)                1.4035         estimate D2E/DX2                !
 ! R25   R(20,22)                1.4049         estimate D2E/DX2                !
 ! R26   R(21,23)                1.394          estimate D2E/DX2                !
 ! R27   R(21,24)                1.0926         estimate D2E/DX2                !
 ! R28   R(22,25)                1.3907         estimate D2E/DX2                !
 ! R29   R(22,26)                1.0927         estimate D2E/DX2                !
 ! R30   R(23,27)                1.3937         estimate D2E/DX2                !
 ! R31   R(23,28)                1.0928         estimate D2E/DX2                !
 ! R32   R(25,27)                1.3963         estimate D2E/DX2                !
 ! R33   R(25,29)                1.0927         estimate D2E/DX2                !
 ! R34   R(27,30)                1.0926         estimate D2E/DX2                !
 ! R35   R(31,32)                1.0989         estimate D2E/DX2                !
 ! R36   R(31,33)                1.3877         estimate D2E/DX2                !
 ! R37   R(33,34)                1.462          estimate D2E/DX2                !
 ! R38   R(33,35)                1.4603         estimate D2E/DX2                !
 ! R39   R(34,36)                1.5281         estimate D2E/DX2                !
 ! R40   R(34,44)                1.1051         estimate D2E/DX2                !
 ! R41   R(34,45)                1.5319         estimate D2E/DX2                !
 ! R42   R(35,37)                1.5264         estimate D2E/DX2                !
 ! R43   R(35,38)                1.106          estimate D2E/DX2                !
 ! R44   R(35,41)                1.1013         estimate D2E/DX2                !
 ! R45   R(36,37)                1.5276         estimate D2E/DX2                !
 ! R46   R(36,39)                1.102          estimate D2E/DX2                !
 ! R47   R(36,43)                1.1001         estimate D2E/DX2                !
 ! R48   R(37,40)                1.0991         estimate D2E/DX2                !
 ! R49   R(37,42)                1.1012         estimate D2E/DX2                !
 ! R50   R(45,46)                1.1035         estimate D2E/DX2                !
 ! R51   R(45,47)                1.1088         estimate D2E/DX2                !
 ! R52   R(45,48)                1.3948         estimate D2E/DX2                !
 ! R53   R(48,49)                0.9672         estimate D2E/DX2                !
 ! A1    A(2,1,5)              123.485          estimate D2E/DX2                !
 ! A2    A(2,1,16)             121.091          estimate D2E/DX2                !
 ! A3    A(5,1,16)             115.276          estimate D2E/DX2                !
 ! A4    A(1,2,3)              114.4906         estimate D2E/DX2                !
 ! A5    A(1,2,19)             119.1427         estimate D2E/DX2                !
 ! A6    A(3,2,19)             126.2587         estimate D2E/DX2                !
 ! A7    A(2,3,4)              118.8834         estimate D2E/DX2                !
 ! A8    A(2,3,7)              124.5692         estimate D2E/DX2                !
 ! A9    A(4,3,7)              116.4342         estimate D2E/DX2                !
 ! A10   A(3,4,8)              122.0622         estimate D2E/DX2                !
 ! A11   A(3,4,14)             122.9483         estimate D2E/DX2                !
 ! A12   A(8,4,14)             114.9532         estimate D2E/DX2                !
 ! A13   A(1,5,14)             114.7475         estimate D2E/DX2                !
 ! A14   A(1,5,15)             127.0454         estimate D2E/DX2                !
 ! A15   A(14,5,15)            118.1677         estimate D2E/DX2                !
 ! A16   A(3,7,6)              119.3877         estimate D2E/DX2                !
 ! A17   A(3,7,10)             121.8705         estimate D2E/DX2                !
 ! A18   A(6,7,10)             118.7408         estimate D2E/DX2                !
 ! A19   A(4,8,9)              119.85           estimate D2E/DX2                !
 ! A20   A(4,8,11)             117.8998         estimate D2E/DX2                !
 ! A21   A(9,8,11)             122.2383         estimate D2E/DX2                !
 ! A22   A(8,9,10)             119.4787         estimate D2E/DX2                !
 ! A23   A(8,9,12)             119.9141         estimate D2E/DX2                !
 ! A24   A(10,9,12)            120.5904         estimate D2E/DX2                !
 ! A25   A(7,10,9)             120.1246         estimate D2E/DX2                !
 ! A26   A(7,10,13)            119.4672         estimate D2E/DX2                !
 ! A27   A(9,10,13)            120.4074         estimate D2E/DX2                !
 ! A28   A(4,14,5)             124.0002         estimate D2E/DX2                !
 ! A29   A(1,16,17)            117.0862         estimate D2E/DX2                !
 ! A30   A(1,16,18)            129.0694         estimate D2E/DX2                !
 ! A31   A(17,16,18)           113.722          estimate D2E/DX2                !
 ! A32   A(16,17,31)           117.1068         estimate D2E/DX2                !
 ! A33   A(2,19,20)            128.6099         estimate D2E/DX2                !
 ! A34   A(2,19,31)            117.0886         estimate D2E/DX2                !
 ! A35   A(20,19,31)           114.3015         estimate D2E/DX2                !
 ! A36   A(19,20,21)           120.716          estimate D2E/DX2                !
 ! A37   A(19,20,22)           120.4719         estimate D2E/DX2                !
 ! A38   A(21,20,22)           118.6279         estimate D2E/DX2                !
 ! A39   A(20,21,23)           120.596          estimate D2E/DX2                !
 ! A40   A(20,21,24)           119.1991         estimate D2E/DX2                !
 ! A41   A(23,21,24)           120.2018         estimate D2E/DX2                !
 ! A42   A(20,22,25)           120.6284         estimate D2E/DX2                !
 ! A43   A(20,22,26)           119.0201         estimate D2E/DX2                !
 ! A44   A(25,22,26)           120.3511         estimate D2E/DX2                !
 ! A45   A(21,23,27)           120.2235         estimate D2E/DX2                !
 ! A46   A(21,23,28)           119.679          estimate D2E/DX2                !
 ! A47   A(27,23,28)           120.0975         estimate D2E/DX2                !
 ! A48   A(22,25,27)           120.2495         estimate D2E/DX2                !
 ! A49   A(22,25,29)           119.6597         estimate D2E/DX2                !
 ! A50   A(27,25,29)           120.0894         estimate D2E/DX2                !
 ! A51   A(23,27,25)           119.6562         estimate D2E/DX2                !
 ! A52   A(23,27,30)           120.1903         estimate D2E/DX2                !
 ! A53   A(25,27,30)           120.1519         estimate D2E/DX2                !
 ! A54   A(17,31,19)           107.2457         estimate D2E/DX2                !
 ! A55   A(17,31,32)            98.7684         estimate D2E/DX2                !
 ! A56   A(17,31,33)           114.2167         estimate D2E/DX2                !
 ! A57   A(19,31,32)           111.434          estimate D2E/DX2                !
 ! A58   A(19,31,33)           114.6835         estimate D2E/DX2                !
 ! A59   A(32,31,33)           109.395          estimate D2E/DX2                !
 ! A60   A(31,33,34)           122.3111         estimate D2E/DX2                !
 ! A61   A(31,33,35)           124.5575         estimate D2E/DX2                !
 ! A62   A(34,33,35)           112.9821         estimate D2E/DX2                !
 ! A63   A(33,34,36)           102.3021         estimate D2E/DX2                !
 ! A64   A(33,34,44)           109.1164         estimate D2E/DX2                !
 ! A65   A(33,34,45)           113.4913         estimate D2E/DX2                !
 ! A66   A(36,34,44)           111.8687         estimate D2E/DX2                !
 ! A67   A(36,34,45)           113.2701         estimate D2E/DX2                !
 ! A68   A(44,34,45)           106.8209         estimate D2E/DX2                !
 ! A69   A(33,35,37)           103.5486         estimate D2E/DX2                !
 ! A70   A(33,35,38)           110.7838         estimate D2E/DX2                !
 ! A71   A(33,35,41)           112.4451         estimate D2E/DX2                !
 ! A72   A(37,35,38)           111.5743         estimate D2E/DX2                !
 ! A73   A(37,35,41)           111.5514         estimate D2E/DX2                !
 ! A74   A(38,35,41)           107.0228         estimate D2E/DX2                !
 ! A75   A(34,36,37)           103.341          estimate D2E/DX2                !
 ! A76   A(34,36,39)           109.7502         estimate D2E/DX2                !
 ! A77   A(34,36,43)           112.661          estimate D2E/DX2                !
 ! A78   A(37,36,39)           110.3369         estimate D2E/DX2                !
 ! A79   A(37,36,43)           113.2717         estimate D2E/DX2                !
 ! A80   A(39,36,43)           107.4609         estimate D2E/DX2                !
 ! A81   A(35,37,36)           103.6641         estimate D2E/DX2                !
 ! A82   A(35,37,40)           112.4292         estimate D2E/DX2                !
 ! A83   A(35,37,42)           109.9543         estimate D2E/DX2                !
 ! A84   A(36,37,40)           113.476          estimate D2E/DX2                !
 ! A85   A(36,37,42)           110.044          estimate D2E/DX2                !
 ! A86   A(40,37,42)           107.2668         estimate D2E/DX2                !
 ! A87   A(34,45,46)           107.8443         estimate D2E/DX2                !
 ! A88   A(34,45,47)           109.3748         estimate D2E/DX2                !
 ! A89   A(34,45,48)           112.871          estimate D2E/DX2                !
 ! A90   A(46,45,47)           106.9035         estimate D2E/DX2                !
 ! A91   A(46,45,48)           107.3141         estimate D2E/DX2                !
 ! A92   A(47,45,48)           112.2426         estimate D2E/DX2                !
 ! A93   A(45,48,49)           108.6217         estimate D2E/DX2                !
 ! D1    D(5,1,2,3)             -2.2949         estimate D2E/DX2                !
 ! D2    D(5,1,2,19)           174.1622         estimate D2E/DX2                !
 ! D3    D(16,1,2,3)           173.0703         estimate D2E/DX2                !
 ! D4    D(16,1,2,19)          -10.4726         estimate D2E/DX2                !
 ! D5    D(2,1,5,14)            11.4219         estimate D2E/DX2                !
 ! D6    D(2,1,5,15)          -170.9203         estimate D2E/DX2                !
 ! D7    D(16,1,5,14)         -164.1893         estimate D2E/DX2                !
 ! D8    D(16,1,5,15)           13.4685         estimate D2E/DX2                !
 ! D9    D(2,1,16,17)           -1.9611         estimate D2E/DX2                !
 ! D10   D(2,1,16,18)         -177.6514         estimate D2E/DX2                !
 ! D11   D(5,1,16,17)          173.7648         estimate D2E/DX2                !
 ! D12   D(5,1,16,18)           -1.9256         estimate D2E/DX2                !
 ! D13   D(1,2,3,4)             -5.1257         estimate D2E/DX2                !
 ! D14   D(1,2,3,7)            170.8595         estimate D2E/DX2                !
 ! D15   D(19,2,3,4)           178.7123         estimate D2E/DX2                !
 ! D16   D(19,2,3,7)            -5.3026         estimate D2E/DX2                !
 ! D17   D(1,2,19,20)          168.8315         estimate D2E/DX2                !
 ! D18   D(1,2,19,31)          -11.2605         estimate D2E/DX2                !
 ! D19   D(3,2,19,20)          -15.1676         estimate D2E/DX2                !
 ! D20   D(3,2,19,31)          164.7404         estimate D2E/DX2                !
 ! D21   D(2,3,4,8)           -178.9272         estimate D2E/DX2                !
 ! D22   D(2,3,4,14)             3.3731         estimate D2E/DX2                !
 ! D23   D(7,3,4,8)              4.7644         estimate D2E/DX2                !
 ! D24   D(7,3,4,14)          -172.9353         estimate D2E/DX2                !
 ! D25   D(2,3,7,6)             -0.5005         estimate D2E/DX2                !
 ! D26   D(2,3,7,10)           179.8717         estimate D2E/DX2                !
 ! D27   D(4,3,7,6)            175.5738         estimate D2E/DX2                !
 ! D28   D(4,3,7,10)            -4.0541         estimate D2E/DX2                !
 ! D29   D(3,4,8,9)             -2.1511         estimate D2E/DX2                !
 ! D30   D(3,4,8,11)           179.0794         estimate D2E/DX2                !
 ! D31   D(14,4,8,9)           175.72           estimate D2E/DX2                !
 ! D32   D(14,4,8,11)           -3.0496         estimate D2E/DX2                !
 ! D33   D(3,4,14,5)             7.0624         estimate D2E/DX2                !
 ! D34   D(8,4,14,5)          -170.7875         estimate D2E/DX2                !
 ! D35   D(1,5,14,4)           -13.8322         estimate D2E/DX2                !
 ! D36   D(15,5,14,4)          168.2883         estimate D2E/DX2                !
 ! D37   D(3,7,10,9)             0.7438         estimate D2E/DX2                !
 ! D38   D(3,7,10,13)         -179.5796         estimate D2E/DX2                !
 ! D39   D(6,7,10,9)          -178.8863         estimate D2E/DX2                !
 ! D40   D(6,7,10,13)            0.7902         estimate D2E/DX2                !
 ! D41   D(4,8,9,10)            -1.3889         estimate D2E/DX2                !
 ! D42   D(4,8,9,12)          -179.9091         estimate D2E/DX2                !
 ! D43   D(11,8,9,10)          177.3255         estimate D2E/DX2                !
 ! D44   D(11,8,9,12)           -1.1947         estimate D2E/DX2                !
 ! D45   D(8,9,10,7)             2.0764         estimate D2E/DX2                !
 ! D46   D(8,9,10,13)         -177.597          estimate D2E/DX2                !
 ! D47   D(12,9,10,7)         -179.4136         estimate D2E/DX2                !
 ! D48   D(12,9,10,13)           0.9129         estimate D2E/DX2                !
 ! D49   D(1,16,17,31)          36.0149         estimate D2E/DX2                !
 ! D50   D(18,16,17,31)       -147.6389         estimate D2E/DX2                !
 ! D51   D(16,17,31,19)        -53.9004         estimate D2E/DX2                !
 ! D52   D(16,17,31,32)       -169.6881         estimate D2E/DX2                !
 ! D53   D(16,17,31,33)         74.3483         estimate D2E/DX2                !
 ! D54   D(2,19,20,21)         128.0681         estimate D2E/DX2                !
 ! D55   D(2,19,20,22)         -56.933          estimate D2E/DX2                !
 ! D56   D(31,19,20,21)        -51.842          estimate D2E/DX2                !
 ! D57   D(31,19,20,22)        123.1569         estimate D2E/DX2                !
 ! D58   D(2,19,31,17)          40.0911         estimate D2E/DX2                !
 ! D59   D(2,19,31,32)         147.1493         estimate D2E/DX2                !
 ! D60   D(2,19,31,33)         -87.887          estimate D2E/DX2                !
 ! D61   D(20,19,31,17)       -139.9879         estimate D2E/DX2                !
 ! D62   D(20,19,31,32)        -32.9296         estimate D2E/DX2                !
 ! D63   D(20,19,31,33)         92.034          estimate D2E/DX2                !
 ! D64   D(19,20,21,23)        176.6488         estimate D2E/DX2                !
 ! D65   D(19,20,21,24)         -3.988          estimate D2E/DX2                !
 ! D66   D(22,20,21,23)          1.5593         estimate D2E/DX2                !
 ! D67   D(22,20,21,24)       -179.0775         estimate D2E/DX2                !
 ! D68   D(19,20,22,25)       -176.533          estimate D2E/DX2                !
 ! D69   D(19,20,22,26)          3.6963         estimate D2E/DX2                !
 ! D70   D(21,20,22,25)         -1.4311         estimate D2E/DX2                !
 ! D71   D(21,20,22,26)        178.7982         estimate D2E/DX2                !
 ! D72   D(20,21,23,27)         -0.6997         estimate D2E/DX2                !
 ! D73   D(20,21,23,28)        179.2845         estimate D2E/DX2                !
 ! D74   D(24,21,23,27)        179.9435         estimate D2E/DX2                !
 ! D75   D(24,21,23,28)         -0.0723         estimate D2E/DX2                !
 ! D76   D(20,22,25,27)          0.4414         estimate D2E/DX2                !
 ! D77   D(20,22,25,29)       -179.9852         estimate D2E/DX2                !
 ! D78   D(26,22,25,27)       -179.7909         estimate D2E/DX2                !
 ! D79   D(26,22,25,29)         -0.2175         estimate D2E/DX2                !
 ! D80   D(21,23,27,25)         -0.3186         estimate D2E/DX2                !
 ! D81   D(21,23,27,30)       -179.868          estimate D2E/DX2                !
 ! D82   D(28,23,27,25)        179.6973         estimate D2E/DX2                !
 ! D83   D(28,23,27,30)          0.1478         estimate D2E/DX2                !
 ! D84   D(22,25,27,23)          0.4471         estimate D2E/DX2                !
 ! D85   D(22,25,27,30)        179.9967         estimate D2E/DX2                !
 ! D86   D(29,25,27,23)       -179.1245         estimate D2E/DX2                !
 ! D87   D(29,25,27,30)          0.4251         estimate D2E/DX2                !
 ! D88   D(17,31,33,34)         86.0795         estimate D2E/DX2                !
 ! D89   D(17,31,33,35)        -89.1622         estimate D2E/DX2                !
 ! D90   D(19,31,33,34)       -149.5543         estimate D2E/DX2                !
 ! D91   D(19,31,33,35)         35.2039         estimate D2E/DX2                !
 ! D92   D(32,31,33,34)        -23.5265         estimate D2E/DX2                !
 ! D93   D(32,31,33,35)        161.2317         estimate D2E/DX2                !
 ! D94   D(31,33,34,36)        166.84           estimate D2E/DX2                !
 ! D95   D(31,33,34,44)         48.2153         estimate D2E/DX2                !
 ! D96   D(31,33,34,45)        -70.7704         estimate D2E/DX2                !
 ! D97   D(35,33,34,36)        -17.4155         estimate D2E/DX2                !
 ! D98   D(35,33,34,44)       -136.0402         estimate D2E/DX2                !
 ! D99   D(35,33,34,45)        104.9741         estimate D2E/DX2                !
 ! D100  D(31,33,35,37)        169.8244         estimate D2E/DX2                !
 ! D101  D(31,33,35,38)        -70.4385         estimate D2E/DX2                !
 ! D102  D(31,33,35,41)         49.2694         estimate D2E/DX2                !
 ! D103  D(34,33,35,37)         -5.8082         estimate D2E/DX2                !
 ! D104  D(34,33,35,38)        113.9288         estimate D2E/DX2                !
 ! D105  D(34,33,35,41)       -126.3632         estimate D2E/DX2                !
 ! D106  D(33,34,36,37)         33.3321         estimate D2E/DX2                !
 ! D107  D(33,34,36,39)        -84.3554         estimate D2E/DX2                !
 ! D108  D(33,34,36,43)        155.9497         estimate D2E/DX2                !
 ! D109  D(44,34,36,37)        149.9926         estimate D2E/DX2                !
 ! D110  D(44,34,36,39)         32.3051         estimate D2E/DX2                !
 ! D111  D(44,34,36,43)        -87.3898         estimate D2E/DX2                !
 ! D112  D(45,34,36,37)        -89.2078         estimate D2E/DX2                !
 ! D113  D(45,34,36,39)        153.1047         estimate D2E/DX2                !
 ! D114  D(45,34,36,43)         33.4098         estimate D2E/DX2                !
 ! D115  D(33,34,45,46)       -176.5172         estimate D2E/DX2                !
 ! D116  D(33,34,45,47)        -60.6047         estimate D2E/DX2                !
 ! D117  D(33,34,45,48)         65.1156         estimate D2E/DX2                !
 ! D118  D(36,34,45,46)        -60.4257         estimate D2E/DX2                !
 ! D119  D(36,34,45,47)         55.4869         estimate D2E/DX2                !
 ! D120  D(36,34,45,48)       -178.7928         estimate D2E/DX2                !
 ! D121  D(44,34,45,46)         63.1886         estimate D2E/DX2                !
 ! D122  D(44,34,45,47)        179.1011         estimate D2E/DX2                !
 ! D123  D(44,34,45,48)        -55.1786         estimate D2E/DX2                !
 ! D124  D(33,35,37,36)         26.7194         estimate D2E/DX2                !
 ! D125  D(33,35,37,40)        149.6667         estimate D2E/DX2                !
 ! D126  D(33,35,37,42)        -90.8951         estimate D2E/DX2                !
 ! D127  D(38,35,37,36)        -92.4756         estimate D2E/DX2                !
 ! D128  D(38,35,37,40)         30.4717         estimate D2E/DX2                !
 ! D129  D(38,35,37,42)        149.91           estimate D2E/DX2                !
 ! D130  D(41,35,37,36)        147.8787         estimate D2E/DX2                !
 ! D131  D(41,35,37,40)        -89.174          estimate D2E/DX2                !
 ! D132  D(41,35,37,42)         30.2643         estimate D2E/DX2                !
 ! D133  D(34,36,37,35)        -37.6014         estimate D2E/DX2                !
 ! D134  D(34,36,37,40)       -159.8555         estimate D2E/DX2                !
 ! D135  D(34,36,37,42)         79.9505         estimate D2E/DX2                !
 ! D136  D(39,36,37,35)         79.6745         estimate D2E/DX2                !
 ! D137  D(39,36,37,40)        -42.5795         estimate D2E/DX2                !
 ! D138  D(39,36,37,42)       -162.7735         estimate D2E/DX2                !
 ! D139  D(43,36,37,35)       -159.8114         estimate D2E/DX2                !
 ! D140  D(43,36,37,40)         77.9345         estimate D2E/DX2                !
 ! D141  D(43,36,37,42)        -42.2594         estimate D2E/DX2                !
 ! D142  D(34,45,48,49)        -77.5144         estimate D2E/DX2                !
 ! D143  D(46,45,48,49)        163.8093         estimate D2E/DX2                !
 ! D144  D(47,45,48,49)         46.6457         estimate D2E/DX2                !
 --------------------------------------------------------------------------------
 Trust Radius=3.00D-01 FncErr=1.00D-07 GrdErr=1.00D-06
 Number of steps in this run=    294 maximum allowed number of steps=    294.
 GradGradGradGradGradGradGradGradGradGradGradGradGradGradGradGradGradGrad

 Leave Link  103 at Thu Dec 21 16:56:52 2023, MaxMem=  4026531840 cpu:         0.2
 (Enter /share/programs/GAUSSIAN/64/g09/l202.exe)
                          Input orientation:                          
 ---------------------------------------------------------------------
 Center     Atomic      Atomic             Coordinates (Angstroms)
 Number     Number       Type             X           Y           Z
 ---------------------------------------------------------------------
      1          6           0        0.296700   -0.766490   -1.476900
      2          6           0        0.871790   -0.424380   -0.176650
      3          6           0        2.179690    0.253740   -0.245930
      4          6           0        2.797530    0.409910   -1.497730
      5          6           0        0.930540   -0.423690   -2.761210
      6          1           0        2.364310    0.810460    1.833870
      7          6           0        2.835780    0.839200    0.854630
      8          6           0        4.044800    1.021470   -1.637470
      9          6           0        4.689710    1.535750   -0.523490
     10          6           0        4.068510    1.461620    0.725980
     11          1           0        4.468750    1.093310   -2.640350
     12          1           0        5.664940    2.015780   -0.631840
     13          1           0        4.545140    1.896590    1.606820
     14          8           0        2.215100    0.023230   -2.662530
     15          8           0        0.454160   -0.534320   -3.851000
     16          7           0       -0.822490   -1.508570   -1.568340
     17          8           0       -1.369640   -1.959610   -0.395690
     18          8           0       -1.392210   -1.903010   -2.551280
     19          6           0        0.152270   -0.678130    0.956560
     20          6           0        0.600380   -0.632210    2.360610
     21          6           0       -0.110200    0.110890    3.315970
     22          6           0        1.685780   -1.415190    2.788040
     23          6           0        0.274930    0.096920    4.655630
     24          1           0       -0.965340    0.711100    2.996140
     25          6           0        2.066010   -1.429210    4.125690
     26          1           0        2.231110   -2.011740    2.052760
     27          6           0        1.364900   -0.669430    5.064280
     28          1           0       -0.281940    0.690340    5.384920
     29          1           0        2.912810   -2.043790    4.440720
     30          1           0        1.664970   -0.681670    6.114800
     31          6           0       -1.290880   -1.054710    0.780370
     32          1           0       -1.619550   -1.759740    1.556510
     33          7           0       -2.168310    0.019300    0.731980
     34          6           0       -3.547990   -0.076790    1.205980
     35          6           0       -1.862430    1.312160    0.125780
     36          6           0       -3.975190    1.389200    1.263920
     37          6           0       -3.212080    2.024850    0.103300
     38          1           0       -1.120870    1.864560    0.732630
     39          1           0       -3.655770    1.832610    2.220850
     40          1           0       -3.111690    3.115900    0.190570
     41          1           0       -1.440630    1.212590   -0.886610
     42          1           0       -3.729890    1.819190   -0.846550
     43          1           0       -5.065320    1.516280    1.188800
     44          1           0       -3.555210   -0.547470    2.205810
     45          6           0       -4.444500   -0.933320    0.306300
     46          1           0       -5.469860   -0.890970    0.711950
     47          1           0       -4.480550   -0.487710   -0.708330
     48          8           0       -4.063350   -2.274780    0.280560
     49          1           0       -3.291670   -2.365600   -0.295440
 ---------------------------------------------------------------------
                    Distance matrix (angstroms):
                    1          2          3          4          5
     1  C    0.000000
     2  C    1.462333   0.000000
     3  C    2.470184   1.474872   0.000000
     4  C    2.763784   2.479872   1.404677   0.000000
     5  C    1.472656   2.585228   2.888931   2.403523   0.000000
     6  H    4.209867   2.791888   2.160923   3.383442   4.969264
     7  C    3.802788   2.552926   1.408705   2.391516   4.277748
     8  C    4.155820   3.780538   2.450393   1.396143   3.612464
     9  C    5.050528   4.305685   2.832100   2.407697   4.793553
    10  C    4.903438   3.819785   2.443609   2.768821   5.055862
    11  H    4.713648   4.616419   3.417297   2.136725   3.851600
    12  H    6.105174   5.397765   3.924370   3.398621   5.735832
    13  H    5.886473   4.696932   3.424470   3.860387   6.126069
    14  O    2.389484   2.860845   2.427827   1.358494   1.363660
    15  O    2.390617   3.699642   4.073699   3.452656   1.194495
    16  N    1.345968   2.445987   3.723921   4.097572   2.381810
    17  O    2.317162   2.725604   4.185581   4.918783   3.639445
    18  O    2.301823   3.598737   4.767041   4.900356   2.761816
    19  C    2.439343   1.366112   2.534718   3.768922   3.806870
    20  C    3.851848   2.560185   3.173827   4.560731   5.136684
    21  C    4.889475   3.667317   4.236878   5.631697   6.188783
    22  C    4.532115   3.230119   3.497749   4.789029   5.687498
    23  C    6.193051   4.896828   5.260988   6.657726   7.463938
    24  H    4.876895   3.838093   4.539979   5.868967   6.166781
    25  C    5.912586   4.576677   4.685756   5.961572   7.051933
    26  H    4.213204   3.055770   3.227851   4.334882   5.233325
    27  C    6.628537   5.269777   5.451097   6.802748   7.841387
    28  H    7.038590   5.788329   6.160902   7.545373   8.310873
    29  H    6.594979   5.301732   5.270749   6.426439   7.643423
    30  H    7.714484   6.346470   6.449714   7.773342   8.910078
    31  C    2.774662   2.447518   3.848401   4.904075   4.227964
    32  H    3.722920   3.315691   4.662308   5.791922   5.189479
    33  N    3.401895   3.203852   4.462776   5.457449   4.690574
    34  C    4.738689   4.644022   5.918075   6.914662   5.993010
    35  C    3.398707   3.253151   4.194896   5.016480   4.375908
    36  C    5.514357   5.371920   6.438281   7.379394   6.599578
    37  C    4.753961   4.770230   5.685945   6.425476   5.600184
    38  H    3.716712   3.168080   3.800792   4.737549   4.653095
    39  H    6.004223   5.598286   6.529198   7.582677   7.137650
    40  H    5.428677   5.341961   6.031683   6.715029   6.130361
    41  H    2.698799   2.920788   3.799550   4.356577   3.437148
    42  H    4.826646   5.163122   6.142842   6.709495   5.515074
    43  H    6.408452   6.393738   7.492838   8.382476   7.437500
    44  H    5.333623   5.028876   6.288247   7.415530   6.693920
    45  C    5.068196   5.362388   6.752330   7.583257   6.209702
    46  H    6.169260   6.420579   7.793812   8.655906   7.297007
    47  H    4.846704   5.379055   6.717318   7.375590   5.787772
    48  O    4.936967   5.290428   6.756194   7.579020   6.133338
    49  H    4.102365   4.595307   6.066232   6.799067   5.260997
                    6          7          8          9         10
     6  H    0.000000
     7  C    1.087208   0.000000
     8  C    3.862483   2.775881   0.000000
     9  C    3.389790   2.412769   1.386126   0.000000
    10  C    2.134415   1.386932   2.404203   1.397340   0.000000
    11  H    4.952506   3.866012   1.091175   2.173861   3.409989
    12  H    4.292631   3.405595   2.150534   1.092356   2.167800
    13  H    2.446886   2.146107   3.397292   2.165485   1.091904
    14  O    4.567232   3.663532   2.322721   3.603735   4.121419
    15  O    6.146125   5.449920   4.495875   5.770390   6.164093
    16  N    5.206595   4.976520   5.486018   6.383098   6.165048
    17  O    5.156220   5.204056   6.304365   6.996399   6.521996
    18  O    6.379961   6.082420   6.240890   7.275078   7.202821
    19  C    2.806901   3.084462   4.976889   5.261195   4.468628
    20  C    2.338846   3.070836   5.530220   5.453504   4.368531
    21  C    2.968033   3.907356   6.529146   6.309581   5.098445
    22  C    2.514828   3.184784   5.575610   5.357040   4.266794
    23  C    3.582873   4.642901   7.393904   6.955846   5.629903
    24  H    3.528075   4.364744   6.831411   6.711738   5.572841
    25  C    3.218314   4.054388   6.567759   6.106526   4.891312
    26  H    2.833808   3.151032   5.109563   5.026576   4.147362
    27  C    3.691130   4.707505   7.413128   6.865883   5.538206
    28  H    4.430240   5.501442   8.254955   7.767968   6.420826
    29  H    3.904262   4.601913   6.900842   6.372901   5.236682
    30  H    4.587144   5.599396   8.286252   7.624493   6.277745
    31  C    4.236642   4.541116   6.214978   6.646653   5.920974
    32  H    4.749105   5.205487   7.072588   7.415755   6.589459
    33  N    4.731251   5.072297   6.724684   7.135003   6.401425
    34  C    6.011385   6.458715   8.181799   8.570359   7.785125
    35  C    4.586350   4.777875   6.171622   6.588026   5.963106
    36  C    6.391326   6.845388   8.536599   8.848548   8.061993
    37  C    5.963702   6.208613   7.529898   7.941686   7.328844
    38  H    3.803989   4.089172   5.745635   5.953889   5.205004
    39  H    6.118489   6.707730   8.651206   8.790140   7.876343
    40  H    6.164581   6.402870   7.677481   7.991783   7.387732
    41  H    4.694709   4.632388   5.539879   6.149582   5.745702
    42  H    6.733607   6.852913   7.855426   8.430562   7.963401
    43  H    7.490908   7.937096   9.551279   9.904187   9.145712
    44  H    6.084655   6.677821   8.659823   8.931270   8.021686
    45  C    7.192644   7.512987   8.925674   9.498350   8.853429
    46  H    8.094924   8.485134   9.985287  10.518182   9.824224
    47  H    7.416208   7.598172   8.707613   9.392669   8.885019
    48  O    7.297006   7.591075   8.960257   9.580329   8.960258
    49  H    6.827256   7.009925   8.191281   8.886786   8.358419
                   11         12         13         14         15
    11  H    0.000000
    12  H    2.513152   0.000000
    13  H    4.323141   2.505944   0.000000
    14  O    2.494895   4.471616   5.212093   0.000000
    15  O    4.497976   6.634624   7.241080   2.196414   0.000000
    16  N    5.993013   7.442098   7.105505   3.573600   2.790974
    17  O    6.960289   8.083614   7.339274   4.681942   4.158950
    18  O    6.583063   8.297260   8.184063   4.090900   2.640391
    19  C    5.891329   6.337957   5.133160   4.224333   4.819175
    20  C    6.553725   6.451076   4.745963   5.316847   6.214102
    21  C    7.576918   7.250245   5.270874   6.415385   7.218051
    22  C    6.595825   6.269039   4.532009   5.661974   6.809528
    23  C    8.474210   7.790479   5.546958   7.571338   8.531901
    24  H    7.838714   7.669748   5.805255   6.527550   7.102773
    25  C    7.610228   6.888711   4.853013   6.943467   8.186970
    26  H    6.055877   5.934575   4.563841   5.135691   6.339929
    27  C    8.491317   7.625384   5.352795   7.804243   8.962696
    28  H    9.334688   8.562919   6.247382   8.452319   9.345793
    29  H    7.899614   7.055862   5.120750   7.430715   8.779298
    30  H    9.362926   8.294163   5.938408   8.822757  10.040166
    31  C    7.034817   7.733413   6.591837   5.030647   4.976501
    32  H    7.925965   8.491597   7.167613   5.973594   5.919721
    33  N    7.521747   8.197911   7.025665   5.544096   5.309195
    34  C    8.968362   9.624682   8.339883   6.941799   6.465260
    35  C    6.912540   7.598050   6.602423   5.105121   4.958917
    36  C    9.307577   9.844725   8.542309   7.456713   7.034307
    37  C    8.209174   8.907412   7.902625   6.411753   5.968849
    38  H    6.573863   6.923284   5.733141   5.103558   5.407865
    39  H    9.496613   9.749206   8.224114   7.847826   7.704625
    40  H    8.340746   8.883460   7.881594   6.788187   6.509507
    41  H    6.165274   7.155358   6.520314   4.234717   3.928044
    42  H    8.423913   9.399339   8.631404   6.470407   5.663215
    43  H   10.282985  10.895077   9.627062   8.370571   7.750432
    44  H    9.516373   9.981667   8.482210   7.571189   7.263619
    45  C    9.603958  10.572515   9.513851   7.353857   6.437330
    46  H   10.674795  11.586144  10.434151   8.442836   7.486102
    47  H    9.290979  10.450085   9.618102   6.993689   5.850633
    48  O    9.626654  10.671504   9.657401   7.304900   6.364502
    49  H    8.814010   9.976498   9.121428   6.452452   5.479675
                   16         17         18         19         20
    16  N    0.000000
    17  O    1.370372   0.000000
    18  O    1.202637   2.156451   0.000000
    19  C    2.831061   2.405614   4.023766   0.000000
    20  C    4.269568   3.638703   5.450872   1.474540   0.000000
    21  C    5.194852   4.432785   6.334348   2.501651   1.403508
    22  C    5.027742   4.446136   6.182259   2.499846   1.404937
    23  C    6.520716   5.696469   7.662808   3.781384   2.429952
    24  H    5.077580   4.335973   6.147329   2.709040   2.158671
    25  C    6.385273   5.703323   7.534302   3.777553   2.428742
    26  H    4.763404   4.354656   5.859817   2.702174   2.158044
    27  C    7.034236   6.241278   8.192688   4.282979   2.809930
    28  H    7.312676   6.451417   8.422674   4.655279   3.416735
    29  H    7.095613   6.460443   8.212252   4.650267   3.415662
    30  H    8.117996   7.295784   9.270327   5.375473   3.902530
    31  C    2.437584   1.485989   3.439444   1.501845   2.500506
    32  H    3.234668   1.978254   4.116570   2.160825   2.616484
    33  N    3.071985   2.413628   3.882963   2.433503   3.277582
    34  C    4.144297   3.294779   4.701007   3.757093   4.341732
    35  C    3.450802   3.349515   4.210116   2.951350   3.852333
    36  C    5.134032   4.556065   5.662701   4.626473   5.121003
    37  C    4.581438   4.418088   5.078071   4.399205   5.166262
    38  H    4.094081   3.994905   5.005225   2.852420   3.441930
    39  H    5.792143   5.143307   6.469296   4.733224   4.920334
    40  H    5.451598   5.398078   5.971918   5.063086   5.704110
    41  H    2.872554   3.210747   3.532766   3.083736   4.255989
    42  H    4.477493   4.478101   4.714406   4.955702   5.920006
    43  H    5.895180   5.315117   6.258712   5.665035   6.171653
    44  H    4.757697   3.679492   5.398700   3.914474   4.159336
    45  C    4.118755   3.316749   4.292148   4.649543   5.455426
    46  H    5.213367   4.379573   5.319786   5.631472   6.295463
    47  H    3.893992   3.455719   3.864891   4.926575   5.937602
    48  O    3.809026   2.795124   3.910565   4.558258   5.364235
    49  H    2.907168   1.966997   2.985088   4.034325   5.020687
                   21         22         23         24         25
    21  C    0.000000
    22  C    2.415197   0.000000
    23  C    1.393990   2.786551   0.000000
    24  H    1.092615   3.404828   2.160878   0.000000
    25  C    2.786296   1.390712   2.412028   3.878904   0.000000
    26  H    3.403379   1.092654   3.879178   4.303617   2.159546
    27  C    2.416900   2.416690   1.393672   3.407798   1.396342
    28  H    2.155414   3.879299   1.092756   2.484700   3.404559
    29  H    3.878956   2.152229   3.404003   4.971547   1.092713
    30  H    3.407760   3.406731   2.160461   4.310960   2.162454
    31  C    3.030164   3.608489   4.335395   2.851964   4.753959
    32  H    2.978774   3.544092   4.079312   2.933526   4.504807
    33  N    3.304725   4.597734   4.622821   2.655587   5.616486
    34  C    4.038029   5.629083   5.152182   3.239680   6.470761
    35  C    3.832841   5.207289   5.154091   3.066759   6.240756
    36  C    4.558852   6.498779   5.589025   3.538305   7.254603
    37  C    4.858616   6.559782   6.049782   3.891311   7.481202
    38  H    3.281838   4.781083   4.523576   2.545218   5.702454
    39  H    4.090804   6.277106   4.938742   3.016169   6.856140
    40  H    5.273249   7.091780   6.365548   4.273301   7.934215
    41  H    4.543728   5.493880   5.907985   3.943747   6.663241
    42  H    5.774688   7.280174   7.019885   4.861776   8.298658
    43  H    5.572539   7.531828   6.523171   4.552431   8.255731
    44  H    3.678857   5.344147   4.592040   2.985975   6.005124
    45  C    5.379093   6.631106   6.500083   4.695094   7.564416
    46  H    6.042400   7.469146   7.037837   5.298571   8.290516
    47  H    5.971036   7.149017   7.192249   5.245660   8.192168
    48  O    5.525625   6.330786   6.602035   5.087978   7.284852
    49  H    5.412674   5.931790   6.580101   5.070739   7.009133
                   26         27         28         29         30
    26  H    0.000000
    27  C    3.409013   0.000000
    28  H    4.971916   2.159599   0.000000
    29  H    2.483565   2.161878   4.309688   0.000000
    30  H    4.311586   1.092604   2.491103   2.492994   0.000000
    31  C    3.865139   5.055046   5.026434   5.661047   6.110021
    32  H    3.890675   4.732882   4.738018   5.379743   5.720867
    33  N    5.022398   5.632650   5.065426   6.620338   6.645310
    34  C    6.152972   6.274886   5.359021   7.488295   7.185913
    35  C    5.614146   6.223435   5.526587   7.258376   7.230925
    36  C    7.120872   6.870026   5.577736   8.325985   7.722107
    37  C    7.051437   7.267683   6.185640   8.537056   8.200549
    38  H    5.291901   5.600299   4.870975   6.730208   6.573579
    39  H    7.032968   6.289072   4.764331   7.943585   7.056538
    40  H    7.635834   7.623754   6.393129   8.998932   8.504970
    41  H    5.702445   6.842959   6.399015   7.611629   7.890039
    42  H    7.656079   8.190728   7.210678   9.327556   9.155283
    43  H    8.150536   7.819489   6.416411   9.321998   8.625153
    44  H    5.970679   5.691503   4.727918   7.004932   6.522920
    45  C    6.984045   7.513797   6.764286   8.512143   8.433719
    46  H    7.896761   8.105911   7.159030   9.246722   8.952117
    47  H    7.415704   8.217380   7.492918   9.143078   9.184778
    48  O    6.544472   7.411277   7.010384   8.125706   8.330066
    49  H    6.011685   7.299811   7.117846   7.812192   8.276175
                   31         32         33         34         35
    31  C    0.000000
    32  H    1.098856   0.000000
    33  N    1.387704   2.036166   0.000000
    34  C    2.496401   2.583423   1.461994   0.000000
    35  C    2.521355   3.397433   1.460318   2.436622   0.000000
    36  C    3.662245   3.943409   2.329034   1.528065   2.401052
    37  C    3.692306   4.355582   2.346684   2.397004   1.526430
    38  H    2.924606   3.750068   2.121819   3.143853   1.106040
    39  H    4.000538   4.182406   2.778014   2.165037   2.806467
    40  H    4.588813   5.278649   3.282076   3.378563   2.195069
    41  H    2.818137   3.851700   2.138526   3.237653   1.101255
    42  H    4.105477   4.799685   2.858302   2.800126   2.165620
    43  H    4.585107   4.768737   3.292765   2.200104   3.380855
    44  H    2.723300   2.374441   2.101641   1.105103   3.263472
    45  C    3.191363   3.197865   2.503943   1.531926   3.426639
    46  H    4.182746   4.036450   3.424796   2.144887   4.267426
    47  H    3.565349   3.864309   2.770921   2.168665   3.284787
    48  O    3.070012   2.804545   3.009611   2.439909   4.211193
    49  H    2.622777   2.567639   2.829360   2.749293   3.968132
                   36         37         38         39         40
    36  C    0.000000
    37  C    1.527556   0.000000
    38  H    2.942003   2.189728   0.000000
    39  H    1.101978   2.172058   2.939649   0.000000
    40  H    2.208892   1.099129   2.413099   2.462700   0.000000
    41  H    3.328658   2.185800   1.774612   3.866210   2.752335
    42  H    2.167752   1.101199   3.050058   3.068325   1.771792
    43  H    1.100080   2.207137   3.985985   1.775394   2.715128
    44  H    2.194136   3.339928   3.730169   2.382251   4.204543
    45  C    2.555658   3.211049   4.365364   3.455136   4.264500
    46  H    2.781705   3.737651   5.148503   3.603552   4.678441
    47  H    2.769106   2.929286   4.347067   3.826780   3.958258
    48  O    3.794670   4.386673   5.098695   4.560866   5.474777
    49  H    4.122781   4.409238   4.864520   4.908080   5.505946
                   41         42         43         44         45
    41  H    0.000000
    42  H    2.368603   0.000000
    43  H    4.187831   2.453116   0.000000
    44  H    4.139121   3.866328   2.752055   0.000000
    45  C    3.879587   3.068557   2.676708   2.132570   0.000000
    46  H    4.818200   3.577902   2.487145   2.452651   1.103498
    47  H    3.487681   2.429894   2.820822   3.058110   1.108757
    48  O    4.516934   4.259362   4.025044   2.635981   1.394795
    49  H    4.071766   4.243610   4.518605   3.103434   1.934563
                   46         47         48         49
    46  H    0.000000
    47  H    1.777230   0.000000
    48  O    2.019727   2.084605   0.000000
    49  H    2.816714   2.260616   0.967220   0.000000
 Symmetry turned off by external request.
 Stoichiometry    C22H20N2O5
 Framework group  C1[X(C22H20N2O5)]
 Deg. of freedom   141
 Full point group                 C1      NOp   1
 Rotational constants (GHZ):      0.2110270      0.1642778      0.1126336
 Leave Link  202 at Thu Dec 21 16:56:52 2023, MaxMem=  4026531840 cpu:         0.1
 (Enter /share/programs/GAUSSIAN/64/g09/l301.exe)
 Standard basis: def2SVP (5D, 7F)
 Ernie: Thresh=  0.10000D-02 Tol=  0.10000D-05 Strict=F.
   506 basis functions,   865 primitive gaussians,   535 cartesian basis functions
   103 alpha electrons      103 beta electrons
       nuclear repulsion energy      2880.0324433038 Hartrees.
 IExCor= 1009 DFT=T Ex+Corr=PBE1PBE ExCW=0 ScaHFX=  0.250000
 ScaDFX=  0.750000  0.750000  1.000000  1.000000 ScalE2=  1.000000  1.000000
 IRadAn=      0 IRanWt=     -1 IRanGd=            0 ICorTp=0 IEmpDi=131
 NAtoms=   49 NActive=   49 NUniq=   49 SFac= 1.00D+00 NAtFMM=   60 NAOKFM=F Big=F
 Integral buffers will be    131072 words long.
 Raffenetti 2 integral format.
 Two-electron integral symmetry is turned off.
 R6Disp:  Grimme-D3 Dispersion energy=       -0.0391979561 Hartrees.
 Nuclear repulsion after empirical dispersion term =     2879.9932453477 Hartrees.
 Leave Link  301 at Thu Dec 21 16:56:52 2023, MaxMem=  4026531840 cpu:         0.9
 (Enter /share/programs/GAUSSIAN/64/g09/l302.exe)
 NPDir=0 NMtPBC=     1 NCelOv=     1 NCel=       1 NClECP=     1 NCelD=      1
         NCelK=      1 NCelE2=     1 NClLst=     1 CellRange=     0.0.
 One-electron integrals computed using PRISM.
   1 Symmetry operations used in ECPInt.
 ECPInt:  NShTT=   27495 NPrTT=  101013 LenC2=   24384 LenP2D=   60044.
 LDataN:  DoStor=T MaxTD1= 4 Len=   56
 NBasis=   506 RedAO= T EigKep=  2.29D-04  NBF=   506
 NBsUse=   506 1.00D-06 EigRej= -1.00D+00 NBFU=   506
 Precomputing XC quadrature grid using
 IXCGrd= 4 IRadAn=           0 IRanWt=          -1 IRanGd=           0 AccXCQ= 0.00D+00.
 Generated NRdTot=       0 NPtTot=           0 NUsed=           0 NTot=          32
 NSgBfM=   530   530   530   530   530 MxSgAt=    49 MxSgA2=    49.
 Leave Link  302 at Thu Dec 21 16:56:54 2023, MaxMem=  4026531840 cpu:        15.9
 (Enter /share/programs/GAUSSIAN/64/g09/l303.exe)
 DipDrv:  MaxL=1.
 Leave Link  303 at Thu Dec 21 16:56:54 2023, MaxMem=  4026531840 cpu:         1.4
 (Enter /share/programs/GAUSSIAN/64/g09/l401.exe)
 ExpMin= 1.22D-01 ExpMax= 2.27D+03 ExpMxC= 3.41D+02 IAcc=1 IRadAn=         1 AccDes= 0.00D+00
 Harris functional with IExCor= 1009 and IRadAn=       1 diagonalized for initial guess.
 HarFok:  IExCor= 1009 AccDes= 0.00D+00 IRadAn=         1 IDoV= 1 UseB2=F ITyADJ=14
 ICtDFT=  3500011 ScaDFX=  1.000000  1.000000  1.000000  1.000000
 FoFCou: FMM=F IPFlag=           0 FMFlag=      100000 FMFlg1=           0
         NFxFlg=           0 DoJE=T BraDBF=F KetDBF=T FulRan=T
         wScrn=  0.000000 ICntrl=     500 IOpCl=  0 I1Cent=   200000004 NGrid=           0
         NMat0=    1 NMatS0=      1 NMatT0=    0 NMatD0=    1 NMtDS0=    0 NMtDT0=    0
 Symmetry not used in FoFCou.
 Harris En= -1333.75715642996    
 JPrj=0 DoOrth=F DoCkMO=F.
 Leave Link  401 at Thu Dec 21 16:56:56 2023, MaxMem=  4026531840 cpu:        23.4
 (Enter /share/programs/GAUSSIAN/64/g09/l502.exe)
 Closed shell SCF:
 Using DIIS extrapolation, IDIIS=  1040.
 Two-electron integral symmetry not used.
 IVT=     1122429 IEndB=     1122429 NGot=  4026531840 MDV=  4025947172
 LenX=  4025947172 LenY=  4025660412
 Requested convergence on RMS density matrix=1.00D-08 within 500 cycles.
 Requested convergence on MAX density matrix=1.00D-06.
 Requested convergence on             energy=1.00D-06.
 No special actions if energy rises.
 Fock matrices will be formed incrementally for  20 cycles.
 Integral accuracy reduced to 1.0D-05 until final iterations.

 Cycle   1  Pass 0  IDiag  1:
 FoFJK:  IHMeth= 1 ICntrl=       0 DoSepK=F KAlg= 0 I1Cent=   0 FoldK=F
 IRaf= 780000000 NMat=   1 IRICut=       1 DoRegI=T DoRafI=F ISym2E= 0.
 FoFCou: FMM=F IPFlag=           0 FMFlag=      100000 FMFlg1=           0
         NFxFlg=           0 DoJE=F BraDBF=F KetDBF=F FulRan=T
         wScrn=  0.000000 ICntrl=       0 IOpCl=  0 I1Cent=           0 NGrid=           0
         NMat0=    1 NMatS0=      1 NMatT0=    0 NMatD0=    1 NMtDS0=    0 NMtDT0=    0
 Symmetry not used in FoFCou.
 E= -1332.86002654700    
 DIIS: error= 3.84D-02 at cycle   1 NSaved=   1.
 NSaved= 1 IEnMin= 1 EnMin= -1332.86002654700     IErMin= 1 ErrMin= 3.84D-02
 ErrMax= 3.84D-02  0.00D+00 EMaxC= 1.00D-01 BMatC= 6.27D-01 BMatP= 6.27D-01
 IDIUse=3 WtCom= 6.16D-01 WtEn= 3.84D-01
 Coeff-Com:  0.100D+01
 Coeff-En:   0.100D+01
 Coeff:      0.100D+01
 Gap=     0.203 Goal=   None    Shift=    0.000
 GapD=    0.203 DampG=1.000 DampE=0.500 DampFc=0.5000 IDamp=-1.
 Damping current iteration by 5.00D-01
 RMSDP=5.22D-03 MaxDP=3.24D-01              OVMax= 3.17D-01

 Cycle   2  Pass 0  IDiag  1:
 RMSU=  2.57D-03    CP:  9.73D-01
 E= -1332.96205846423     Delta-E=       -0.102031917225 Rises=F Damp=T
 DIIS: error= 1.68D-02 at cycle   2 NSaved=   2.
 NSaved= 2 IEnMin= 2 EnMin= -1332.96205846423     IErMin= 2 ErrMin= 1.68D-02
 ErrMax= 1.68D-02  0.00D+00 EMaxC= 1.00D-01 BMatC= 1.35D-01 BMatP= 6.27D-01
 IDIUse=3 WtCom= 8.32D-01 WtEn= 1.68D-01
 Coeff-Com:  0.256D+00 0.744D+00
 Coeff-En:   0.415D+00 0.585D+00
 Coeff:      0.283D+00 0.717D+00
 Gap=     0.147 Goal=   None    Shift=    0.000
 RMSDP=1.97D-03 MaxDP=1.39D-01 DE=-1.02D-01 OVMax= 4.66D-01

 Cycle   3  Pass 0  IDiag  1:
 RMSU=  1.79D-03    CP:  9.53D-01  7.02D-01
 E= -1333.38789495053     Delta-E=       -0.425836486306 Rises=F Damp=F
 DIIS: error= 8.85D-03 at cycle   3 NSaved=   3.
 NSaved= 3 IEnMin= 3 EnMin= -1333.38789495053     IErMin= 3 ErrMin= 8.85D-03
 ErrMax= 8.85D-03  0.00D+00 EMaxC= 1.00D-01 BMatC= 7.84D-02 BMatP= 1.35D-01
 IDIUse=3 WtCom= 9.11D-01 WtEn= 8.85D-02
 Coeff-Com:  0.774D-01 0.422D+00 0.501D+00
 Coeff-En:   0.000D+00 0.000D+00 0.100D+01
 Coeff:      0.705D-01 0.384D+00 0.545D+00
 Gap=     0.141 Goal=   None    Shift=    0.000
 RMSDP=1.06D-03 MaxDP=4.80D-02 DE=-4.26D-01 OVMax= 1.57D-01

 Cycle   4  Pass 0  IDiag  1:
 RMSU=  7.51D-04    CP:  9.57D-01  8.38D-01  6.36D-01
 E= -1333.45080970916     Delta-E=       -0.062914758624 Rises=F Damp=F
 DIIS: error= 4.98D-03 at cycle   4 NSaved=   4.
 NSaved= 4 IEnMin= 4 EnMin= -1333.45080970916     IErMin= 4 ErrMin= 4.98D-03
 ErrMax= 4.98D-03  0.00D+00 EMaxC= 1.00D-01 BMatC= 1.63D-02 BMatP= 7.84D-02
 IDIUse=3 WtCom= 9.50D-01 WtEn= 4.98D-02
 Coeff-Com:  0.126D-01 0.143D+00 0.326D+00 0.519D+00
 Coeff-En:   0.000D+00 0.000D+00 0.160D+00 0.840D+00
 Coeff:      0.120D-01 0.136D+00 0.318D+00 0.535D+00
 Gap=     0.137 Goal=   None    Shift=    0.000
 RMSDP=4.57D-04 MaxDP=3.10D-02 DE=-6.29D-02 OVMax= 7.94D-02

 Cycle   5  Pass 0  IDiag  1:
 RMSU=  3.04D-04    CP:  9.57D-01  8.06D-01  7.27D-01  6.18D-01
 E= -1333.46147833768     Delta-E=       -0.010668628529 Rises=F Damp=F
 DIIS: error= 3.19D-03 at cycle   5 NSaved=   5.
 NSaved= 5 IEnMin= 5 EnMin= -1333.46147833768     IErMin= 5 ErrMin= 3.19D-03
 ErrMax= 3.19D-03  0.00D+00 EMaxC= 1.00D-01 BMatC= 4.57D-03 BMatP= 1.63D-02
 IDIUse=3 WtCom= 9.68D-01 WtEn= 3.19D-02
 Coeff-Com: -0.261D-02 0.288D-01 0.136D+00 0.387D+00 0.451D+00
 Coeff-En:   0.000D+00 0.000D+00 0.000D+00 0.261D+00 0.739D+00
 Coeff:     -0.253D-02 0.279D-01 0.132D+00 0.383D+00 0.461D+00
 Gap=     0.137 Goal=   None    Shift=    0.000
 RMSDP=2.10D-04 MaxDP=1.37D-02 DE=-1.07D-02 OVMax= 3.70D-02

 Cycle   6  Pass 0  IDiag  1:
 RMSU=  1.23D-04    CP:  9.55D-01  8.09D-01  7.16D-01  7.38D-01  5.33D-01
 E= -1333.46552923867     Delta-E=       -0.004050900989 Rises=F Damp=F
 DIIS: error= 1.14D-03 at cycle   6 NSaved=   6.
 NSaved= 6 IEnMin= 6 EnMin= -1333.46552923867     IErMin= 6 ErrMin= 1.14D-03
 ErrMax= 1.14D-03  0.00D+00 EMaxC= 1.00D-01 BMatC= 5.81D-04 BMatP= 4.57D-03
 IDIUse=3 WtCom= 9.89D-01 WtEn= 1.14D-02
 Coeff-Com: -0.331D-02 0.635D-02 0.511D-01 0.189D+00 0.314D+00 0.443D+00
 Coeff-En:   0.000D+00 0.000D+00 0.000D+00 0.000D+00 0.992D-01 0.901D+00
 Coeff:     -0.327D-02 0.628D-02 0.505D-01 0.187D+00 0.311D+00 0.449D+00
 Gap=     0.139 Goal=   None    Shift=    0.000
 RMSDP=6.84D-05 MaxDP=5.42D-03 DE=-4.05D-03 OVMax= 1.26D-02

 Cycle   7  Pass 0  IDiag  1:
 RMSU=  4.34D-05    CP:  9.56D-01  8.10D-01  7.20D-01  7.30D-01  5.62D-01
                    CP:  5.84D-01
 E= -1333.46601364567     Delta-E=       -0.000484406993 Rises=F Damp=F
 DIIS: error= 2.61D-04 at cycle   7 NSaved=   7.
 NSaved= 7 IEnMin= 7 EnMin= -1333.46601364567     IErMin= 7 ErrMin= 2.61D-04
 ErrMax= 2.61D-04  0.00D+00 EMaxC= 1.00D-01 BMatC= 6.09D-05 BMatP= 5.81D-04
 IDIUse=3 WtCom= 9.97D-01 WtEn= 2.61D-03
 Coeff-Com: -0.166D-02-0.189D-02 0.113D-01 0.597D-01 0.136D+00 0.285D+00
 Coeff-Com:  0.512D+00
 Coeff-En:   0.000D+00 0.000D+00 0.000D+00 0.000D+00 0.000D+00 0.593D-01
 Coeff-En:   0.941D+00
 Coeff:     -0.166D-02-0.189D-02 0.113D-01 0.596D-01 0.135D+00 0.285D+00
 Coeff:      0.513D+00
 Gap=     0.139 Goal=   None    Shift=    0.000
 RMSDP=2.23D-05 MaxDP=1.23D-03 DE=-4.84D-04 OVMax= 3.09D-03

 Cycle   8  Pass 0  IDiag  1:
 RMSU=  1.51D-05    CP:  9.56D-01  8.09D-01  7.21D-01  7.32D-01  5.76D-01
                    CP:  6.32D-01  6.64D-01
 E= -1333.46606745026     Delta-E=       -0.000053804594 Rises=F Damp=F
 DIIS: error= 6.66D-05 at cycle   8 NSaved=   8.
 NSaved= 8 IEnMin= 8 EnMin= -1333.46606745026     IErMin= 8 ErrMin= 6.66D-05
 ErrMax= 6.66D-05  0.00D+00 EMaxC= 1.00D-01 BMatC= 6.25D-06 BMatP= 6.09D-05
 IDIUse=1 WtCom= 1.00D+00 WtEn= 0.00D+00
 Coeff-Com: -0.495D-03-0.170D-02 0.121D-02 0.117D-01 0.426D-01 0.107D+00
 Coeff-Com:  0.303D+00 0.537D+00
 Coeff:     -0.495D-03-0.170D-02 0.121D-02 0.117D-01 0.426D-01 0.107D+00
 Coeff:      0.303D+00 0.537D+00
 Gap=     0.139 Goal=   None    Shift=    0.000
 RMSDP=8.06D-06 MaxDP=4.68D-04 DE=-5.38D-05 OVMax= 1.32D-03

 Initial convergence to 1.0D-05 achieved.  Increase integral accuracy.
 Cycle   9  Pass 1  IDiag  1:
 E= -1333.46603792253     Delta-E=        0.000029527732 Rises=F Damp=F
 DIIS: error= 1.79D-04 at cycle   1 NSaved=   1.
 NSaved= 1 IEnMin= 1 EnMin= -1333.46603792253     IErMin= 1 ErrMin= 1.79D-04
 ErrMax= 1.79D-04  0.00D+00 EMaxC= 1.00D-01 BMatC= 9.81D-06 BMatP= 9.81D-06
 IDIUse=3 WtCom= 9.98D-01 WtEn= 1.79D-03
 Coeff-Com:  0.100D+01
 Coeff-En:   0.100D+01
 Coeff:      0.100D+01
 Gap=     0.139 Goal=   None    Shift=    0.000
 RMSDP=8.06D-06 MaxDP=4.68D-04 DE= 2.95D-05 OVMax= 6.19D-04

 Cycle  10  Pass 1  IDiag  1:
 RMSU=  1.56D-04    CP:  1.00D+00
 E= -1333.46604598729     Delta-E=       -0.000008064758 Rises=F Damp=F
 DIIS: error= 3.73D-05 at cycle   2 NSaved=   2.
 NSaved= 2 IEnMin= 2 EnMin= -1333.46604598729     IErMin= 2 ErrMin= 3.73D-05
 ErrMax= 3.73D-05  0.00D+00 EMaxC= 1.00D-01 BMatC= 2.31D-06 BMatP= 9.81D-06
 IDIUse=1 WtCom= 1.00D+00 WtEn= 0.00D+00
 Coeff-Com:  0.235D+00 0.765D+00
 Coeff:      0.235D+00 0.765D+00
 Gap=     0.139 Goal=   None    Shift=    0.000
 RMSDP=9.10D-06 MaxDP=4.31D-04 DE=-8.06D-06 OVMax= 1.00D-03

 Cycle  11  Pass 1  IDiag  1:
 RMSU=  8.96D-06    CP:  1.00D+00  1.01D+00
 E= -1333.46604391891     Delta-E=        0.000002068371 Rises=F Damp=F
 DIIS: error= 5.70D-05 at cycle   3 NSaved=   3.
 NSaved= 3 IEnMin= 2 EnMin= -1333.46604598729     IErMin= 2 ErrMin= 3.73D-05
 ErrMax= 5.70D-05  0.00D+00 EMaxC= 1.00D-01 BMatC= 4.39D-06 BMatP= 2.31D-06
 IDIUse=1 WtCom= 1.00D+00 WtEn= 0.00D+00
 Coeff-Com: -0.198D-02 0.581D+00 0.421D+00
 Coeff:     -0.198D-02 0.581D+00 0.421D+00
 Gap=     0.139 Goal=   None    Shift=    0.000
 RMSDP=5.40D-06 MaxDP=2.70D-04 DE= 2.07D-06 OVMax= 6.39D-04

 Cycle  12  Pass 1  IDiag  1:
 RMSU=  1.37D-06    CP:  1.00D+00  1.02D+00  4.27D-01
 E= -1333.46604817814     Delta-E=       -0.000004259227 Rises=F Damp=F
 DIIS: error= 7.95D-06 at cycle   4 NSaved=   4.
 NSaved= 4 IEnMin= 4 EnMin= -1333.46604817814     IErMin= 4 ErrMin= 7.95D-06
 ErrMax= 7.95D-06  0.00D+00 EMaxC= 1.00D-01 BMatC= 6.93D-08 BMatP= 2.31D-06
 IDIUse=1 WtCom= 1.00D+00 WtEn= 0.00D+00
 Coeff-Com: -0.543D-02 0.348D+00 0.261D+00 0.396D+00
 Coeff:     -0.543D-02 0.348D+00 0.261D+00 0.396D+00
 Gap=     0.139 Goal=   None    Shift=    0.000
 RMSDP=7.05D-07 MaxDP=4.17D-05 DE=-4.26D-06 OVMax= 6.79D-05

 Cycle  13  Pass 1  IDiag  1:
 RMSU=  4.34D-07    CP:  1.00D+00  1.02D+00  4.39D-01  6.03D-01
 E= -1333.46604823685     Delta-E=       -0.000000058710 Rises=F Damp=F
 DIIS: error= 1.75D-06 at cycle   5 NSaved=   5.
 NSaved= 5 IEnMin= 5 EnMin= -1333.46604823685     IErMin= 5 ErrMin= 1.75D-06
 ErrMax= 1.75D-06  0.00D+00 EMaxC= 1.00D-01 BMatC= 2.47D-09 BMatP= 6.93D-08
 IDIUse=1 WtCom= 1.00D+00 WtEn= 0.00D+00
 Coeff-Com: -0.300D-02 0.168D+00 0.127D+00 0.233D+00 0.475D+00
 Coeff:     -0.300D-02 0.168D+00 0.127D+00 0.233D+00 0.475D+00
 Gap=     0.139 Goal=   None    Shift=    0.000
 RMSDP=1.48D-07 MaxDP=8.88D-06 DE=-5.87D-08 OVMax= 8.05D-06

 Cycle  14  Pass 1  IDiag  1:
 RMSU=  1.38D-07    CP:  1.00D+00  1.02D+00  4.36D-01  6.12D-01  9.08D-01
 E= -1333.46604823858     Delta-E=       -0.000000001731 Rises=F Damp=F
 DIIS: error= 7.47D-07 at cycle   6 NSaved=   6.
 NSaved= 6 IEnMin= 6 EnMin= -1333.46604823858     IErMin= 6 ErrMin= 7.47D-07
 ErrMax= 7.47D-07  0.00D+00 EMaxC= 1.00D-01 BMatC= 2.52D-10 BMatP= 2.47D-09
 IDIUse=1 WtCom= 1.00D+00 WtEn= 0.00D+00
 Coeff-Com: -0.733D-03 0.335D-01 0.259D-01 0.654D-01 0.258D+00 0.618D+00
 Coeff:     -0.733D-03 0.335D-01 0.259D-01 0.654D-01 0.258D+00 0.618D+00
 Gap=     0.139 Goal=   None    Shift=    0.000
 RMSDP=6.17D-08 MaxDP=3.73D-06 DE=-1.73D-09 OVMax= 9.89D-06

 Cycle  15  Pass 1  IDiag  1:
 RMSU=  4.98D-08    CP:  1.00D+00  1.02D+00  4.36D-01  6.28D-01  9.45D-01
                    CP:  8.31D-01
 E= -1333.46604823874     Delta-E=       -0.000000000160 Rises=F Damp=F
 DIIS: error= 5.84D-07 at cycle   7 NSaved=   7.
 NSaved= 7 IEnMin= 7 EnMin= -1333.46604823874     IErMin= 7 ErrMin= 5.84D-07
 ErrMax= 5.84D-07  0.00D+00 EMaxC= 1.00D-01 BMatC= 1.18D-10 BMatP= 2.52D-10
 IDIUse=1 WtCom= 1.00D+00 WtEn= 0.00D+00
 Coeff-Com:  0.703D-05-0.559D-02-0.383D-02 0.757D-02 0.969D-01 0.448D+00
 Coeff-Com:  0.457D+00
 Coeff:      0.703D-05-0.559D-02-0.383D-02 0.757D-02 0.969D-01 0.448D+00
 Coeff:      0.457D+00
 Gap=     0.139 Goal=   None    Shift=    0.000
 RMSDP=3.31D-08 MaxDP=2.86D-06 DE=-1.60D-10 OVMax= 6.05D-06

 Cycle  16  Pass 1  IDiag  1:
 RMSU=  2.44D-08    CP:  1.00D+00  1.02D+00  4.37D-01  6.30D-01  9.58D-01
                    CP:  8.78D-01  6.01D-01
 E= -1333.46604823880     Delta-E=       -0.000000000055 Rises=F Damp=F
 DIIS: error= 1.75D-07 at cycle   8 NSaved=   8.
 NSaved= 8 IEnMin= 8 EnMin= -1333.46604823880     IErMin= 8 ErrMin= 1.75D-07
 ErrMax= 1.75D-07  0.00D+00 EMaxC= 1.00D-01 BMatC= 1.57D-11 BMatP= 1.18D-10
 IDIUse=1 WtCom= 1.00D+00 WtEn= 0.00D+00
 Coeff-Com:  0.130D-03-0.968D-02-0.712D-02-0.586D-02 0.175D-01 0.194D+00
 Coeff-Com:  0.314D+00 0.497D+00
 Coeff:      0.130D-03-0.968D-02-0.712D-02-0.586D-02 0.175D-01 0.194D+00
 Coeff:      0.314D+00 0.497D+00
 Gap=     0.139 Goal=   None    Shift=    0.000
 RMSDP=1.27D-08 MaxDP=7.72D-07 DE=-5.55D-11 OVMax= 2.50D-06

 Cycle  17  Pass 1  IDiag  1:
 RMSU=  8.26D-09    CP:  1.00D+00  1.02D+00  4.37D-01  6.32D-01  9.60D-01
                    CP:  8.96D-01  6.95D-01  6.91D-01
 E= -1333.46604823885     Delta-E=       -0.000000000047 Rises=F Damp=F
 DIIS: error= 3.09D-08 at cycle   9 NSaved=   9.
 NSaved= 9 IEnMin= 9 EnMin= -1333.46604823885     IErMin= 9 ErrMin= 3.09D-08
 ErrMax= 3.09D-08  0.00D+00 EMaxC= 1.00D-01 BMatC= 1.28D-12 BMatP= 1.57D-11
 IDIUse=1 WtCom= 1.00D+00 WtEn= 0.00D+00
 Coeff-Com:  0.762D-04-0.509D-02-0.377D-02-0.415D-02-0.238D-02 0.622D-01
 Coeff-Com:  0.134D+00 0.292D+00 0.527D+00
 Coeff:      0.762D-04-0.509D-02-0.377D-02-0.415D-02-0.238D-02 0.622D-01
 Coeff:      0.134D+00 0.292D+00 0.527D+00
 Gap=     0.139 Goal=   None    Shift=    0.000
 RMSDP=2.93D-09 MaxDP=2.00D-07 DE=-4.73D-11 OVMax= 4.61D-07

 SCF Done:  E(RPBE1PBE) =  -1333.46604824     A.U. after   17 cycles
            NFock= 17  Conv=0.29D-08     -V/T= 2.0092
 KE= 1.321310533184D+03 PE=-8.863492749721D+03 EE= 3.328722922950D+03
 Leave Link  502 at Thu Dec 21 17:01:32 2023, MaxMem=  4026531840 cpu:      3308.5
 (Enter /share/programs/GAUSSIAN/64/g09/l601.exe)
 Copying SCF densities to generalized density rwf, IOpCl= 0 IROHF=0.

 **********************************************************************

            Population analysis using the SCF density.

 **********************************************************************

 Alpha  occ. eigenvalues --  -19.29319 -19.27876 -19.24502 -19.20139 -19.19790
 Alpha  occ. eigenvalues --  -14.62381 -14.41929 -10.37901 -10.34801 -10.32143
 Alpha  occ. eigenvalues --  -10.30720 -10.29166 -10.27912 -10.27731 -10.27671
 Alpha  occ. eigenvalues --  -10.27317 -10.27135 -10.27015 -10.25827 -10.25784
 Alpha  occ. eigenvalues --  -10.25709 -10.25697 -10.25669 -10.25630 -10.25589
 Alpha  occ. eigenvalues --  -10.25279 -10.25109 -10.25087 -10.25061  -1.25741
 Alpha  occ. eigenvalues --   -1.15200  -1.10210  -1.05981  -1.03593  -0.98794
 Alpha  occ. eigenvalues --   -0.92195  -0.90108  -0.89438  -0.86466  -0.82548
 Alpha  occ. eigenvalues --   -0.79985  -0.78961  -0.78397  -0.77963  -0.76951
 Alpha  occ. eigenvalues --   -0.73666  -0.72819  -0.68888  -0.67368  -0.65153
 Alpha  occ. eigenvalues --   -0.64850  -0.63653  -0.62517  -0.62355  -0.60706
 Alpha  occ. eigenvalues --   -0.59085  -0.57697  -0.57388  -0.55245  -0.54666
 Alpha  occ. eigenvalues --   -0.54025  -0.53919  -0.51788  -0.51123  -0.50203
 Alpha  occ. eigenvalues --   -0.50030  -0.49476  -0.49018  -0.47629  -0.47409
 Alpha  occ. eigenvalues --   -0.46677  -0.46162  -0.45987  -0.45342  -0.45069
 Alpha  occ. eigenvalues --   -0.44611  -0.43845  -0.42938  -0.42662  -0.41612
 Alpha  occ. eigenvalues --   -0.41280  -0.40593  -0.39931  -0.39612  -0.38444
 Alpha  occ. eigenvalues --   -0.38012  -0.37542  -0.37462  -0.37098  -0.36616
 Alpha  occ. eigenvalues --   -0.35874  -0.35788  -0.34878  -0.33565  -0.33213
 Alpha  occ. eigenvalues --   -0.29613  -0.29116  -0.28744  -0.28645  -0.27804
 Alpha  occ. eigenvalues --   -0.26397  -0.24800  -0.23216
 Alpha virt. eigenvalues --   -0.09287  -0.04526  -0.02752  -0.01848  -0.01035
 Alpha virt. eigenvalues --    0.01835   0.04119   0.06062   0.06800   0.07040
 Alpha virt. eigenvalues --    0.07908   0.08089   0.09083   0.09742   0.10451
 Alpha virt. eigenvalues --    0.10849   0.11203   0.11442   0.12056   0.12454
 Alpha virt. eigenvalues --    0.13226   0.13522   0.14133   0.14625   0.14894
 Alpha virt. eigenvalues --    0.15707   0.15867   0.15961   0.16653   0.17413
 Alpha virt. eigenvalues --    0.17712   0.17960   0.19159   0.19313   0.20606
 Alpha virt. eigenvalues --    0.21421   0.22574   0.23138   0.24169   0.24743
 Alpha virt. eigenvalues --    0.25325   0.25912   0.26090   0.27381   0.27546
 Alpha virt. eigenvalues --    0.28265   0.28780   0.29527   0.29817   0.30856
 Alpha virt. eigenvalues --    0.31135   0.31508   0.32653   0.33029   0.34834
 Alpha virt. eigenvalues --    0.35555   0.36954   0.38370   0.38614   0.39095
 Alpha virt. eigenvalues --    0.39964   0.40324   0.40917   0.41726   0.42137
 Alpha virt. eigenvalues --    0.43639   0.44612   0.45030   0.45307   0.45605
 Alpha virt. eigenvalues --    0.46103   0.46611   0.47029   0.47735   0.48038
 Alpha virt. eigenvalues --    0.48243   0.49007   0.49110   0.50167   0.50791
 Alpha virt. eigenvalues --    0.51349   0.51593   0.52084   0.52749   0.53405
 Alpha virt. eigenvalues --    0.54455   0.54862   0.55565   0.56278   0.56703
 Alpha virt. eigenvalues --    0.57321   0.58215   0.59086   0.59302   0.59415
 Alpha virt. eigenvalues --    0.60458   0.60968   0.61536   0.62056   0.63018
 Alpha virt. eigenvalues --    0.63345   0.63748   0.63913   0.64628   0.65228
 Alpha virt. eigenvalues --    0.65534   0.65852   0.66324   0.66522   0.66720
 Alpha virt. eigenvalues --    0.67184   0.67594   0.67912   0.68258   0.68369
 Alpha virt. eigenvalues --    0.68495   0.69109   0.69560   0.70328   0.70717
 Alpha virt. eigenvalues --    0.71021   0.71260   0.72085   0.72343   0.73208
 Alpha virt. eigenvalues --    0.73388   0.73692   0.73938   0.74577   0.74632
 Alpha virt. eigenvalues --    0.75079   0.75659   0.76110   0.77935   0.78466
 Alpha virt. eigenvalues --    0.78898   0.80256   0.80377   0.80767   0.81574
 Alpha virt. eigenvalues --    0.82125   0.83367   0.84166   0.85280   0.86849
 Alpha virt. eigenvalues --    0.87609   0.87807   0.88924   0.90305   0.91294
 Alpha virt. eigenvalues --    0.91868   0.93320   0.94617   0.95481   0.96408
 Alpha virt. eigenvalues --    0.98294   0.99752   1.00096   1.01445   1.03172
 Alpha virt. eigenvalues --    1.04121   1.04857   1.05971   1.06738   1.07003
 Alpha virt. eigenvalues --    1.08316   1.09514   1.10046   1.10526   1.11232
 Alpha virt. eigenvalues --    1.13446   1.14903   1.15722   1.16620   1.16836
 Alpha virt. eigenvalues --    1.18062   1.18780   1.19850   1.20592   1.21399
 Alpha virt. eigenvalues --    1.21625   1.22795   1.23944   1.24263   1.26041
 Alpha virt. eigenvalues --    1.26296   1.27243   1.28109   1.28721   1.29096
 Alpha virt. eigenvalues --    1.29569   1.30144   1.31159   1.31573   1.32675
 Alpha virt. eigenvalues --    1.33320   1.33482   1.34459   1.35938   1.37952
 Alpha virt. eigenvalues --    1.39564   1.41063   1.42212   1.43307   1.44287
 Alpha virt. eigenvalues --    1.45712   1.48322   1.50002   1.50862   1.52058
[...]
 722,0.00017022,0.00053075,0.00088908,0.00074290,0.00014885,-0.00000200
 ,0.00015482,-0.00007983,0.00032227,0.00016165,0.00003130,0.00000124,0.
 00004318,-0.00000056,0.00000387,0.00000737,-0.00000825,-0.00001299,-0.
 00000970,0.00000342,0.00000659,-0.00000712,0.00000522,0.00000678,0.000
 00094,0.00000304,0.00000456,0.00000531,-0.00000342,-0.00000318,0.00000
 228,0.00000079,-0.00000947,-0.00000660,-0.00000333,-0.00000154,-0.0000
 0118,-0.00000176,0.00000195,-0.00000409,-0.00000259,0.00000045,-0.0000
 0283,0.00101711,-0.00205304,-0.00131853,-0.00008182,0.00001660,-0.0000
 7107,-0.00477955,-0.00102791,-0.00312273,-0.01191078,-0.00196387,0.008
 12507,-0.00007505,0.00073319,-0.00026219,-0.00108990,0.00035131,0.0004
 3949,0.00010648,-0.00029113,0.00026808,-0.00007537,-0.00025818,-0.0000
 0238,0.00026568,0.00005355,0.00003956,-0.00005963,-0.00002206,-0.00004
 198,0.00005400,-0.00005337,0.00000493,-0.00000522,-0.00001960,-0.00013
 185,0.00028083,-0.00079402,-0.00028907,0.00046212,0.00070313,-0.000226
 99,-0.05275436,-0.05603557,0.02378182,0.04003117,0.06923683,0.00015643
 ,0.00015383,-0.00013972,-0.00007985,-0.00006926,0.00003092,0.00001691,
 -0.00005083,0.00001749,-0.00006860,0.00000548,-0.00005689,-0.00011585,
 -0.00011266,0.00007008,-0.00000099,-0.00000051,-0.00000010,0.00000366,
 0.00000295,0.00000583,0.00001392,0.00000674,0.00001127,-0.00000744,0.0
 0000091,-0.00000637,-0.00000027,-0.00000560,0.00000711,-0.00000253,-0.
 00000168,-0.00000024,0.00000144,0.00000020,0.00000026,-0.00000011,-0.0
 0000057,0.00000026,0.00011460,0.00005669,0.00002876,0.00003677,0.00001
 749,-0.00002560,-0.00070285,-0.00003177,-0.00025335,0.00019004,0.00044
 495,0.00045912,0.00056977,0.00000075,0.00035629,0.00001186,0.00025007,
 0.00008403,0.00001249,0.00000174,0.00000487,0.00000103,-0.00000116,0.0
 0001826,0.00000734,-0.00000494,0.00000014,0.00000396,0.00000248,-0.000
 00449,0.00000035,0.00000197,-0.00000169,0.00000413,0.00000798,0.000001
 15,-0.00000423,0.00000382,0.00000146,0.00000126,-0.00000580,0.00000154
 ,-0.00000052,0.00000148,0.00000081,-0.00000335,0.00000028,-0.00000144,
 -0.00000124,0.00000094,0.00000076,0.00027833,-0.00107044,-0.00080010,-
 0.00006592,-0.00002707,-0.00003689,-0.00376141,-0.00301564,-0.00120149
 ,-0.01908442,-0.00494100,0.00733512,-0.00070346,0.00011523,-0.00035772
 ,-0.00013180,0.00041481,0.00067455,-0.00019408,0.00031320,-0.00014288,
 -0.00003787,-0.00024264,0.00002327,-0.00002207,0.00017420,-0.00001045,
 0.00006518,0.00001222,0.00009994,-0.00008663,-0.00010032,-0.00002906,0
 .00019190,-0.00007216,0.00012700,0.00009365,-0.00002591,0.00007492,0.0
 0015434,0.00063237,0.00078670,0.08921918,0.02099566,-0.08859964,-0.097
 91898,-0.01330671,0.08940000,0.00028627,0.00020201,0.00000756,-0.00007
 007,0.00000915,-0.00005467,-0.00000817,-0.00000194,0.00002388,-0.00006
 683,0.00001105,-0.00006638,-0.00017129,-0.00017995,0.00012812,-0.00000
 085,-0.00000175,0.00000007,-0.00000315,0.00000540,-0.00000988,0.000014
 41,0.00000053,0.00001069,0.00000091,0.00000048,-0.00000086,0.00000855,
 0.00000100,0.00000447,-0.00000193,-0.00000030,-0.00000033,0.00000256,0
 .00000015,0.00000062,0.00000262,0.00000040,0.00000129,0.00014438,0.000
 06535,0.00004222,0.00004368,0.00003222,-0.00006236,-0.00094879,-0.0002
 1684,-0.00085687,0.00001977,-0.00024904,0.00013342,0.00084830,-0.00005
 155,0.00046504,0.00004985,-0.00003020,0.00000505,-0.00001724,0.0000043
 4,-0.00003462,-0.00000206,-0.00000369,0.00001457,0.00000858,0.00002716
 ,0.00001902,0.00000353,-0.00000840,0.00000550,-0.00000444,-0.00000798,
 -0.00000220,-0.00001238,-0.00000361,0.00001061,0.00001368,-0.00001235,
 -0.00000577,0.00000156,0.00000757,0.00001460,0.00000246,0.00000111,0.0
 0000213,0.00000476,-0.00000203,0.00000751,0.00000135,-0.00000112,0.000
 00167,-0.00050938,0.00052813,-0.00002813,0.00009318,-0.00005848,0.0000
 6759,0.00232373,0.00145433,0.00161919,-0.00208303,0.00658023,-0.018225
 64,-0.00014141,-0.00028459,-0.00028739,0.00014972,0.00018386,0.0000786
 7,-0.00001141,-0.00007399,-0.00018432,0.00005059,0.00002083,0.00000198
 ,-0.00001268,-0.00010060,0.00009555,0.00003213,0.00000281,0.00015652,-
 0.00009610,-0.00004233,-0.00005907,0.00017010,-0.00032407,0.00015565,0
 .00006074,-0.00016626,0.00016424,-0.00100885,-0.00133751,-0.00271000,-
 0.05455081,0.00633547,-0.01221584,0.00444510,-0.01326675,0.02363864,0.
 05156808,-0.00007440,-0.00000739,-0.00015372,0.00005658,0.00001437,0.0
 0003117,0.00000494,-0.00000760,-0.00001158,0.00003434,-0.00000789,0.00
 003784,0.00007350,0.00001080,0.00010443,-0.00000074,-0.00000309,-0.000
 00289,-0.00000461,0.00000240,-0.00000662,-0.00000914,-0.00000133,-0.00
 000303,0.00000805,-0.00000126,0.00000748,0.00000393,0.00000993,-0.0000
 0683,0.00000191,0.00000018,-0.00000060,0.00000077,-0.00000052,-0.00000
 030,0.00000076,-0.00000043,0.00000016,-0.00004464,-0.00000127,-0.00004
 801,-0.00004566,0.00002879,-0.00006511,0.00051992,-0.00010192,0.001085
 42,0.00044911,0.00052713,-0.00037914,-0.00051940,-0.00002238,-0.000476
 79,-0.00008744,0.00004276,-0.00008441,0.00001125,0.00002049,-0.0000159
 4,-0.00000007,0.00000044,-0.00000088,-0.00001694,-0.00003824,-0.000010
 85,-0.00000311,0.00000427,0.00000613,0.00000381,0.00000007,-0.00000170
 ,-0.00000022,0.00001212,0.00000287,-0.00001121,0.00000231,-0.00001477,
 -0.00000003,0.00000544,0.00000598,0.00000182,0.00000126,0.00000109,0.0
 0000193,-0.00000418,-0.00000273,0.00000217,0.00000097,0.00000136,0.000
 01095,-0.00036945,0.00008340,-0.00014305,-0.00013625,-0.00025956,0.001
 51647,0.00072907,0.00101761,-0.00327395,0.00909358,-0.01542740,0.00000
 616,-0.00007851,0.00011543,0.00038115,0.00101203,0.00072304,-0.0004886
 9,-0.00083717,-0.00025410,0.00002846,0.00000625,-0.00002038,0.00008796
 ,0.00034713,0.00015827,-0.00003912,-0.00000144,-0.00002293,0.00000559,
 -0.00000002,-0.00005621,-0.00029195,-0.00114760,-0.00012852,0.00034184
 ,0.00001691,0.00025609,-0.00242856,-0.00151224,-0.00294888,0.00962116,
 -0.10892537,0.10464732,0.00005939,-0.00107275,0.00504066,-0.01603029,0
 .13370382,0.00002589,-0.00000597,0.00000647,-0.00003436,-0.00002527,-0
 .00003948,-0.00001302,-0.00000074,0.00001825,-0.00005248,0.00001523,-0
 .00005869,-0.00009913,0.00000871,-0.00007840,0.00000437,-0.00000257,0.
 00000057,0.00000136,0.00000381,0.00000172,0.00001083,0.00000026,0.0000
 0668,-0.00000746,0.00000086,-0.00000695,-0.00000119,-0.00000660,0.0000
 1135,-0.00000280,-0.00000017,0.00000094,-0.00000028,-0.00000025,0.0000
 0032,0.00000076,0.,-0.00000049,0.00008149,0.00001061,0.00005084,0.0000
 5956,-0.00003515,0.00005634,-0.00036519,0.00005173,-0.00024231,-0.0001
 1561,-0.00002503,0.00005109,0.00019826,-0.00004119,0.00011293,0.000046
 19,-0.00005953,0.00004675,-0.00001525,0.00002016,-0.00002495,0.0000059
 1,0.00000637,0.,-0.00001515,0.00002901,0.00000819,0.00000261,-0.000009
 12,-0.00000109,-0.00000987,-0.00000853,0.00000310,-0.00001601,-0.00000
 676,0.00002033,0.00002335,-0.00002639,-0.00001034,-0.00000123,0.000001
 92,0.00001214,-0.00000040,-0.00000216,-0.00000119,0.00001044,-0.000003
 13,0.00000834,0.00000191,-0.00000201,-0.00000067,-0.00026202,0.0000025
 0,-0.00010568,0.00017589,-0.00008661,-0.00005555,0.00104046,-0.0002746
 8,0.00317766,0.00067971,0.01256956,-0.02085957,-0.00053463,0.00009254,
 -0.00004161,-0.00040877,0.00067422,-0.00004798,-0.00036316,0.00021662,
 -0.00071977,0.00011792,-0.00009450,0.00001048,0.00017061,-0.00010329,0
 .00019878,0.00018105,-0.00000093,0.00044177,-0.00010509,-0.00017829,0.
 00003430,0.00007423,-0.00043220,0.00093495,0.00025032,-0.00025349,-0.0
 0026294,-0.00280230,-0.00276862,-0.00220384,-0.01541574,0.10749024,-0.
 23689549,-0.00216802,0.00383797,-0.00774816,0.02072081,-0.11644870,0.2
 4939347,-0.00089060,-0.00151057,0.00194816,0.00015191,0.00003040,-0.00
 012529,-0.00006351,0.00021554,-0.00007653,0.00022718,0.00000431,0.0001
 6959,0.00047554,0.00103322,-0.00159332,0.00002251,0.00001888,0.0000191
 0,0.00002347,-0.00004471,0.00009085,-0.00004489,-0.00001017,-0.0000569
 9,-0.00005435,0.00000051,-0.00003529,-0.00006995,-0.00006180,0.0000198
 7,0.00000153,0.00000452,0.00000880,-0.00002148,0.,-0.00000054,-0.00002
 030,-0.00000086,-0.00001082,-0.00068641,-0.00048903,0.00010075,0.00009
 254,-0.00044200,0.00079356,-0.00007759,0.00234240,-0.00698212,-0.00982
 317,-0.00770318,0.00329862,0.00008161,0.00010086,0.00088050,0.00023568
 ,-0.00106118,0.00004852,-0.00014364,-0.00005963,0.00025680,0.00003500,
 0.00004722,-0.00017975,0.00002792,0.00012067,-0.00005671,0.00000554,-0
 .00002513,-0.00004729,-0.00002407,0.00001741,0.00003719,-0.00000766,-0
 .00010244,0.00003621,0.00005597,-0.00008948,0.00011383,-0.00000710,-0.
 00003482,-0.00009427,-0.00002747,-0.00002107,-0.00002461,-0.00001582,0
 .00002403,-0.00001942,-0.00001764,-0.00001319,-0.00002314,-0.00257080,
 0.00704446,0.00443331,0.00057043,-0.00074932,0.00133400,0.00684009,-0.
 00142396,-0.00061521,0.00614428,-0.00821653,0.00081364,0.00033315,0.00
 077397,-0.00030922,-0.00077127,-0.00107684,-0.00198198,-0.00013902,0.0
 0013330,-0.00023649,0.00003520,-0.00010308,0.00012641,0.00031296,-0.00
 027913,-0.00002391,0.00030440,0.00009756,0.00016819,-0.00002088,-0.000
 03007,0.00005381,0.00007504,-0.00034522,0.00038819,0.00059441,-0.00058
 361,-0.00042443,0.00079569,-0.00025915,0.00154351,-0.11523862,0.084850
 87,0.02696151,-0.01314860,0.03830977,0.00838592,-0.00220946,0.01378374
 ,-0.00127583,0.43880943,0.00028422,0.00026095,-0.00037046,-0.00013709,
 -0.00013039,-0.00000253,0.00004149,-0.00010131,0.00003745,-0.00004236,
 -0.00002401,-0.00005310,0.00018946,-0.00023608,0.00007374,0.00002134,-
 0.00002354,-0.00001184,0.00000032,0.00001633,0.00005312,-0.00000189,0.
 00002641,0.00001452,-0.00003248,0.00000634,-0.00001228,-0.00002297,-0.
 00001098,0.00003086,0.00000184,-0.00001503,-0.00000486,-0.00000183,-0.
 00000886,-0.00000333,-0.00000486,-0.00001183,-0.00001060,0.00001156,0.
 00009115,0.00000148,-0.00011819,0.00012240,0.00000240,-0.00117735,0.00
 038981,-0.00053143,-0.00314166,0.00284071,0.00299437,0.00104417,0.0005
 0450,0.00088778,-0.00024957,0.00060962,0.00047149,0.00003117,0.0000843
 4,0.00006175,-0.00006050,0.00003068,0.00004717,-0.00008641,-0.00016008
 ,-0.00006857,-0.00000908,0.00006791,0.00001379,0.00007058,0.00002478,-
 0.00002426,-0.00000804,0.00005360,0.00004206,-0.00001731,-0.00002110,-
 0.00002322,-0.00000658,-0.00000610,0.00002271,0.00002479,0.00000323,0.
 00000682,0.00000779,-0.00001331,-0.00002826,0.00001501,0.00000004,-0.0
 0000268,0.00267103,-0.00455471,-0.00210271,-0.00034523,-0.00048331,-0.
 00066748,-0.00074571,0.00530766,0.00116684,0.01679283,-0.04005162,-0.0
 1239071,0.00044577,-0.00013413,0.00054214,-0.00515110,0.00014725,-0.00
 534457,0.00059801,-0.00014048,-0.00032769,-0.00003521,0.00015266,-0.00
 012458,0.00079991,-0.00240327,-0.00029260,-0.00040545,-0.00031719,0.00
 000870,-0.00007739,0.00003119,0.00005505,-0.00016427,0.00046939,-0.000
 31756,0.00014832,0.00071305,0.00061985,-0.00030835,0.00226637,0.000553
 41,0.05153840,-0.24001590,-0.00653108,0.00760652,-0.00378224,-0.004242
 44,0.01636233,-0.03220762,-0.00487720,-0.05509171,0.36506304,0.0010398
 8,0.00090592,-0.00029998,-0.00050153,-0.00013665,-0.00047765,-0.000045
 38,-0.00001747,0.00015614,-0.00033111,0.00005296,-0.00035623,-0.000490
 88,-0.00053876,0.00028386,0.00001651,-0.00001258,-0.00000049,0.0000020
 7,0.00002690,0.00002625,0.00006756,0.00002026,0.00005269,-0.00004155,0
 .00001118,-0.00003266,-0.00000132,-0.00003612,0.00005263,-0.00001068,-
 0.00001220,-0.00000233,0.00000345,-0.00000470,0.00000020,0.00000371,-0
 .00000577,-0.00000450,0.00058867,0.00024019,0.00021610,0.00012415,0.00
 011398,-0.00002699,-0.00317961,-0.00141967,-0.00066341,0.00336443,0.00
 205772,0.00277258,0.00234787,0.00060121,0.00145790,0.00010122,-0.00002
 736,0.00111131,0.00003790,0.00004977,-0.00006444,-0.00002475,-0.000000
 37,0.00010949,0.00002164,0.00014508,0.00007071,0.00000330,0.00000161,0
 .00000592,0.00002086,-0.00001342,-0.00001551,-0.00006155,-0.00001216,0
 .00005431,0.00008198,-0.00007215,-0.00001426,0.00000467,0.00000110,0.0
 0004821,0.00001496,-0.00000063,0.00000898,0.00002471,-0.00000336,0.000
 02311,0.00000954,-0.00000754,-0.00000293,0.00120127,-0.00136452,-0.004
 35357,0.00043075,-0.00051504,0.00039321,-0.00059402,0.00278446,0.00127
 238,0.01514502,-0.03125880,-0.00280263,0.00008756,-0.00003313,0.000253
 71,-0.00431554,-0.00228570,-0.00313351,0.00012775,-0.00047157,-0.00102
 207,0.00003544,-0.00001581,0.00000582,0.00025540,-0.00163619,-0.000238
 63,-0.00019030,-0.00027862,0.00047657,-0.00017623,-0.00013240,0.000079
 22,0.00005538,-0.00027514,0.00041087,-0.00023902,0.00050046,-0.0000146
 2,0.00234815,0.00147937,0.00372501,0.03282343,-0.03406948,-0.08524337,
 0.00923366,-0.01953195,-0.00201205,-0.01119703,0.02271655,0.01304321,-
 0.28219572,0.00092867,0.27102326,0.00141732,0.00180675,-0.00244744,-0.
 00055201,-0.00003234,-0.00024978,-0.00003036,-0.00012869,0.00017630,-0
 .00040269,0.00003329,-0.00035243,-0.00061998,-0.00137315,0.00185419,-0
 .00002408,-0.00001265,-0.00001264,-0.00002628,0.00005413,-0.00008797,0
 .00008161,0.00000717,0.00007741,0.00004384,0.00000333,0.00002158,0.000
 07869,0.00003802,-0.00000652,-0.00000793,-0.00000456,-0.00000787,0.000
 02367,0.00000160,0.00000295,0.00002336,0.00000226,0.00001216,0.0010054
 1,0.00064878,-0.00001920,-0.00003466,0.00053016,-0.00088130,-0.0018765
 8,-0.00348434,0.00945333,-0.00247706,0.00446091,-0.00059678,-0.0000207
 7,0.00000078,-0.00106948,0.00017985,0.00061953,0.00120412,0.00028140,0
 .00013726,-0.00033426,-0.00002694,-0.00005269,0.00026112,0.00003359,0.
 00008330,0.00013960,-0.00000690,0.00000774,0.00004575,0.00001845,-0.00
 003414,-0.00003887,-0.00003642,0.00006076,0.00000268,0.00005459,0.0000
 1940,-0.00006943,0.00001906,0.00003359,0.00010763,0.00002603,0.0000198
 1,0.00003061,0.00002121,-0.00001547,0.00004441,0.00001543,0.00000565,0
 .00001974,0.00234744,-0.00615264,-0.00878767,-0.00002953,0.00010325,-0
 .00030732,-0.00308658,0.00230487,0.00103342,0.00419300,-0.00103461,-0.
 00083152,-0.00011129,-0.00045683,0.00027718,-0.00096842,-0.00038402,-0
 .00051887,0.00033640,-0.00018080,0.00003945,0.00001415,0.00010900,-0.0
 0005876,0.00007697,-0.00039661,-0.00014040,-0.00019825,-0.00007898,-0.
 00002492,0.00003742,-0.00003278,0.00001532,-0.00009257,0.00020371,-0.0
 0017902,-0.00014257,0.00015086,0.00015770,-0.00018909,0.00012616,0.000
 12968,-0.01755867,0.00314689,0.01061063,0.00007588,0.00293596,-0.00017
 861,0.00157976,-0.00350446,0.00020106,-0.31015719,-0.03126430,0.233973
 34,0.32669228,0.00075969,0.00084147,-0.00031300,-0.00018562,0.00006991
 ,-0.00018997,-0.00001041,-0.00003837,0.00006218,-0.00017625,0.00003456
 ,-0.00015021,-0.00058481,-0.00048527,0.00075609,-0.00001731,0.00000522
 ,0.00000359,-0.00000730,0.00001549,-0.00005842,0.00004236,-0.00000447,
 0.00003198,0.00002857,0.00000059,0.00000971,0.00004417,0.00001718,-0.0
 0000914,-0.00000424,0.00000410,-0.00000138,0.00001043,0.00000373,0.000
 00279,0.00001189,0.00000642,0.00000934,0.00047317,0.00019989,0.0000362
 8,0.00008729,0.00016189,-0.00037643,-0.00319973,-0.00241239,0.00161919
 ,0.00257116,-0.00065562,-0.00029012,0.00117915,-0.00023704,-0.00004508
 ,0.00007307,0.00002954,0.00012685,0.00003191,-0.00003382,-0.00013787,0
 .00000610,-0.00002167,0.00007008,0.00008429,0.00007928,0.00008682,-0.0
 0000012,-0.00002802,0.00001596,-0.00001679,-0.00002408,-0.00000878,-0.
 00001526,-0.00000022,-0.00001002,-0.00001159,0.00003113,-0.00001945,0.
 00000885,0.00001893,0.00003995,0.00000469,0.00000754,0.00000927,0.0000
 0212,-0.00000167,0.00002520,0.00000181,0.00000067,0.00000900,-0.002821
 93,-0.00089815,-0.00317696,-0.00011584,0.00008937,0.00013044,-0.000539
 21,0.00015043,0.00138708,0.00239240,-0.00059376,-0.00175278,-0.0000127
 0,-0.00074459,0.00017011,-0.00014661,-0.00031691,-0.00004310,0.0000194
 5,-0.00001247,-0.00008218,0.00004216,0.00020489,0.00001445,-0.00009194
 ,-0.00004181,0.00000275,-0.00004635,0.00001194,0.00005710,-0.00003813,
 0.00002134,-0.00005374,0.00003029,-0.00004689,0.00002900,-0.00022817,0
 .00013271,0.00003951,0.00000798,-0.00004259,0.00016432,0.03573144,-0.0
 0217617,-0.02737543,0.00216278,-0.00508324,-0.00132996,0.00061973,0.00
 089341,0.00074678,-0.06912580,-0.05443031,0.06155184,0.03096914,0.0652
 9788,-0.00119758,-0.00061483,-0.00043670,0.00045953,0.00012552,0.00030
 254,0.00002274,0.00000636,-0.00013724,0.00028742,-0.00003930,0.0002972
 6,0.00052983,0.00064377,-0.00018861,-0.00000818,0.00000487,-0.00000243
 ,-0.00000577,-0.00001783,-0.00001735,-0.00006058,-0.00001638,-0.000041
 49,0.00003724,-0.00000829,0.00002887,-0.00000067,0.00003372,-0.0000428
 9,0.00000906,0.00000880,0.00000146,-0.00000329,0.00000213,-0.00000081,
 -0.00000278,0.00000318,0.00000232,-0.00048201,-0.00020225,-0.00022940,
 -0.00012502,-0.00014192,0.00004455,0.00629865,0.00184718,0.00502781,0.
 00081739,0.00015314,-0.00585664,-0.00397002,-0.00152381,-0.00263740,-0
 .00034136,-0.00008346,-0.00103759,-0.00004825,-0.00003653,0.00005940,0
 .00001159,0.00000712,-0.00010423,-0.00002176,-0.00014413,-0.00004634,-
 0.00000983,0.00000115,0.00000274,-0.00000835,0.00000978,0.00001030,0.0
 0004483,0.00002390,-0.00004753,-0.00004478,0.00005952,-0.00000596,-0.0
 0000573,0.00000611,-0.00002701,-0.00000728,-0.00000004,-0.00000750,-0.
 00001084,-0.00000133,-0.00001684,-0.00000187,0.00000656,0.00000268,-0.
 00403593,-0.00110483,0.00185946,-0.00074676,-0.00005901,-0.00128747,0.
 00070680,-0.00049131,-0.00059038,0.00060613,0.00050558,-0.00029098,-0.
 00004801,-0.00040648,0.00021153,0.00022264,-0.00014091,0.00033109,-0.0
 0001907,-0.00000156,0.00014815,0.00001540,0.00019635,-0.00001058,-0.00
 008535,0.00022745,0.00004842,-0.00000960,0.00004612,-0.00004803,0.0000
 6336,0.00012491,-0.00006709,-0.00002436,0.00001275,-0.00004584,-0.0000
 7062,-0.00004681,-0.00004245,-0.00000382,-0.00002037,-0.00017716,0.003
 33663,0.00162351,-0.00465002,-0.00214201,0.00066533,0.00180643,-0.0015
 9553,0.00081030,0.00175418,0.24435805,0.02972987,-0.19635182,-0.242690
 28,-0.03178361,0.20250655\\0.00000399,0.00000701,-0.00001548,-0.000002
 07,0.00000798,0.00001179,0.00000096,-0.00000504,0.00000676,-0.00000175
 ,0.00000303,0.00000375,-0.00000360,0.00000309,0.00000292,-0.00000093,-
 0.00000600,0.00000315,0.00000148,-0.00000566,-0.00000497,0.00000024,-0
 .00000167,0.00000145,0.00000444,-0.00000378,0.00000262,-0.00000025,-0.
 00000202,0.00000131,0.00000198,-0.00000072,0.00000259,0.00000102,-0.00
 000365,0.00000252,-0.00000059,-0.00000556,0.00000158,0.00000557,-0.000
 00150,-0.00000301,0.00000324,0.00000924,0.00000179,-0.00000156,-0.0000
 3363,0.00005778,0.00001265,0.00000161,-0.00008314,-0.00001001,0.000004
 51,-0.00002195,-0.00000889,-0.00002142,-0.00003102,0.00000421,0.000024
 51,0.00001479,0.00000027,-0.00000796,-0.00000297,0.00000177,-0.0000114
 4,-0.00001023,0.00000098,-0.00000348,0.00000178,0.00000017,-0.00000132
 ,0.00000010,0.00000130,-0.00000266,0.00000385,-0.00000415,-0.00000114,
 -0.00000353,-0.00000541,-0.00000827,-0.00000004,0.00000101,-0.00000527
 ,0.00000329,-0.00000316,-0.00000440,-0.00000159,0.00000178,-0.00000519
 ,0.00000016,-0.00002287,0.00006046,0.00008020,0.00000306,-0.00000420,-
 0.00000559,0.00002661,-0.00002284,-0.00001508,-0.00001496,0.00000463,0
 .00000389,-0.00000138,0.00000855,0.00001079,0.00000614,0.00000562,0.00
 000584,0.00000029,-0.00000197,-0.00000305,-0.00000074,-0.00000437,-0.0
 0000133,-0.00000117,0.00000119,-0.00000173,0.00000320,0.00000874,-0.00
 000054,0.00000214,0.00000334,-0.00000398,0.00000088,0.00000674,0.00000
 634,0.00000031,0.00000472,-0.00000230,0.00000340,0.00000098,-0.0000054
 5,0.00000101,-0.00001464,-0.00000097,-0.00000247,0.00000419,-0.0000067
 8,0.00000135,0.00000743,-0.00000024,-0.00000407,0.00001461,0.00000140,
 -0.00000540,-0.00000239,-0.00000747\\\@


 IT'S WHAT A FELLER THINKS HE KNOWS THAT HURTS HIM...
                    ------
           KIN HUBBARD
 Job cpu time:       0 days 16 hours 52 minutes  4.2 seconds.
 File lengths (MBytes):  RWF=   1421 Int=      0 D2E=      0 Chk=     21 Scr=      1
 Normal termination of Gaussian 09 at Thu Dec 21 20:32:33 2023.

real	215m41.554s
user	2583m42.649s
sys	1m16.847s
